9238
Energy = 0.00 kcal/mol
h    -2.422000 -6.794000 -9.010000
o    -3.297000 -6.354000 -9.072000
c    -4.321000 -7.242000 -8.625000
h    -3.999000 -8.274000 -8.775000
h    -5.215000 -7.085000 -9.230000
c    -4.706000 -7.051000 -7.145000
h    -5.522000 -7.736000 -6.909000
o    -3.588000 -7.367000 -6.320000
c    -3.466000 -6.359000 -5.328000
h    -4.124000 -6.586000 -4.480000
n    -2.045000 -6.255000 -4.899000
c    -1.064000 -6.050000 -5.836000
h    -1.339000 -5.956000 -6.879000
c    0.233000 -5.969000 -5.460000
h    1.004000 -5.815000 -6.195000
c    0.516000 -6.076000 -4.078000
n    1.746000 -5.947000 -3.676000
h    1.903000 -5.941000 -2.675000
h    2.411000 -5.534000 -4.324000
n    -0.397000 -6.319000 -3.160000
c    -1.695000 -6.410000 -3.548000
o    -2.536000 -6.642000 -2.675000
c    -5.173000 -5.627000 -6.789000
h    -5.356000 -5.041000 -7.690000
c    -3.971000 -5.093000 -6.023000
h    -3.237000 -4.697000 -6.725000
h    -4.258000 -4.325000 -5.312000
o    -6.347000 -5.677000 -5.988000
p    -7.260000 -4.383000 -5.705000
o    -8.673000 -4.754000 -5.939000
o    -6.710000 -3.223000 -6.448000
o    -7.065000 -4.075000 -4.138000
c    -7.722000 -4.870000 -3.154000
h    -7.323000 -5.884000 -3.202000
h    -8.783000 -4.921000 -3.407000
c    -7.631000 -4.382000 -1.693000
h    -8.290000 -5.030000 -1.119000
o    -6.316000 -4.514000 -1.151000
c    -5.762000 -3.225000 -0.914000
h    -5.713000 -3.027000 0.161000
n    -4.399000 -3.197000 -1.497000
c    -4.059000 -3.147000 -2.826000
h    -4.809000 -3.102000 -3.606000
n    -2.776000 -3.172000 -3.061000
c    -2.215000 -3.248000 -1.778000
c    -0.842000 -3.282000 -1.349000
o    0.187000 -3.274000 -2.024000
n    -0.693000 -3.305000 0.017000
h    0.250000 -3.267000 0.376000
c    -1.725000 -3.300000 0.888000
n    -1.397000 -3.245000 2.147000
h    -0.416000 -3.248000 2.409000
h    -2.108000 -3.122000 2.853000
n    -3.018000 -3.286000 0.551000
c    -3.201000 -3.257000 -0.811000
c    -8.072000 -2.936000 -1.432000
h    -8.779000 -2.582000 -2.186000
c    -6.730000 -2.222000 -1.553000
h    -6.508000 -2.056000 -2.606000
h    -6.734000 -1.268000 -1.035000
o    -8.659000 -2.894000 -0.132000
p    -9.062000 -1.543000 0.631000
o    -10.154000 -1.881000 1.575000
o    -9.258000 -0.440000 -0.326000
o    -7.753000 -1.230000 1.483000
c    -7.386000 -2.036000 2.593000
h    -7.110000 -3.034000 2.248000
h    -8.235000 -2.130000 3.272000
c    -6.213000 -1.427000 3.370000
h    -6.027000 -2.049000 4.247000
o    -5.047000 -1.388000 2.548000
c    -4.511000 -0.093000 2.555000
h    -3.845000 0.017000 3.435000
n    -3.747367 0.112586 1.279553
c    -4.425231 0.137793 0.091061
h    -5.511023 0.145962 0.135013
c    -3.769714 0.145006 -1.095189
h    -4.308739 0.192166 -2.036210
c    -2.338960 0.084309 -1.087815
n    -1.640534 0.034954 -2.205875
h    -0.568106 -0.015949 -2.217474
h    -2.147910 0.078834 -3.080010
n    -1.678806 0.071224 0.107468
c    -2.347072 0.084535 1.313096
o    -1.729818 0.069580 2.381646
c    -6.494000 0.012000 3.826000
h    -7.565000 0.228000 3.765000
c    -5.715000 0.821000 2.789000
h    -6.338000 0.950000 1.906000
h    -5.416000 1.798000 3.163000
o    -6.013000 0.223000 5.148000
p    -6.414000 1.547000 5.962000
o    -6.216000 1.247000 7.398000
o    -7.742000 1.988000 5.494000
o    -5.313000 2.606000 5.514000
c    -3.988000 2.498000 5.997000
h    -3.663000 1.464000 5.886000
h    -3.976000 2.751000 7.058000
c    -2.969000 3.382000 5.271000
h    -2.019000 3.263000 5.783000
o    -2.814000 2.961000 3.916000
c    -2.860000 4.125000 3.115000
h    -1.887000 4.620000 3.144000
n    -3.155000 3.822000 1.699000
c    -4.354000 3.803000 1.029000
h    -5.306000 3.938000 1.532000
n    -4.238000 3.621000 -0.262000
c    -2.853000 3.508000 -0.463000
c    -2.060000 3.320000 -1.655000
o    -2.418000 3.227000 -2.832000
n    -0.708000 3.215000 -1.400000
h    -0.083000 3.137000 -2.190000
c    -0.163000 3.294000 -0.165000
n    1.132000 3.216000 -0.089000
h    1.699000 3.181000 -0.936000
h    1.573000 3.353000 0.806000
n    -0.844000 3.494000 0.960000
c    -2.193000 3.590000 0.744000
c    -3.312000 4.880000 5.253000
h    -4.051000 5.148000 6.011000
c    -3.867000 5.014000 3.841000
h    -4.879000 4.610000 3.782000
h    -3.826000 6.045000 3.499000
o    -2.116000 5.653000 5.339000
p    -1.882000 6.781000 6.435000
o    -1.886000 6.174000 7.789000
o    -2.773000 7.924000 6.147000
o    -0.402000 7.241000 6.086000
c    0.721000 6.436000 6.409000
h    0.416000 5.395000 6.460000
h    1.113000 6.737000 7.381000
c    1.838000 6.521000 5.365000
h    2.671000 5.913000 5.722000
o    1.374000 6.001000 4.120000
c    1.514000 7.002000 3.121000
h    2.459000 6.862000 2.586000
n    0.385000 6.935000 2.167000
c    -0.952000 7.159000 2.399000
h    -1.344000 7.346000 3.392000
n    -1.697000 7.132000 1.323000
c    -0.767000 6.857000 0.304000
c    -0.826000 6.696000 -1.103000
n    -1.898000 6.806000 -1.864000
h    -1.790000 6.667000 -2.857000
h    -2.782000 7.126000 -1.483000
n    0.264000 6.397000 -1.806000
c    1.415000 6.260000 -1.165000
h    2.275000 6.018000 -1.776000
n    1.639000 6.391000 0.141000
c    0.493000 6.697000 0.818000
c    2.341000 7.946000 5.111000
h    2.104000 8.597000 5.957000
c    1.568000 8.337000 3.861000
h    0.571000 8.681000 4.134000
h    2.094000 9.098000 3.285000
o    3.738000 7.896000 4.869000
p    4.667000 9.195000 4.950000
o    5.940000 8.719000 5.536000
o    3.936000 10.279000 5.634000
o    4.860000 9.606000 3.416000
c    5.673000 8.821000 2.555000
h    5.556000 7.769000 2.803000
h    6.716000 9.093000 2.717000
c    5.349000 8.978000 1.062000
h    6.022000 8.332000 0.495000
o    4.009000 8.648000 0.742000
c    3.783000 9.131000 -0.576000
h    4.002000 8.341000 -1.302000
n    2.387000 9.570000 -0.768000
c    1.451000 9.931000 0.169000
h    1.681000 9.980000 1.224000
n    0.267000 10.188000 -0.327000
c    0.459000 10.005000 -1.708000
c    -0.359000 10.088000 -2.861000
n    -1.646000 10.376000 -2.877000
h    -2.129000 10.349000 -3.765000
h    -2.111000 10.614000 -2.016000
n    0.146000 9.891000 -4.076000
c    1.434000 9.613000 -4.182000
h    1.800000 9.459000 -5.187000
n    2.326000 9.482000 -3.209000
c    1.760000 9.679000 -1.984000
c    5.492000 10.398000 0.534000
h    4.961000 11.083000 1.191000
c    4.765000 10.284000 -0.798000
h    4.263000 11.219000 -1.042000
h    5.454000 10.017000 -1.597000
o    6.858000 10.726000 0.377000
p    7.358000 12.221000 0.165000
o    8.829000 12.164000 0.309000
o    6.581000 13.107000 1.067000
o    6.987000 12.559000 -1.361000
c    7.597000 11.833000 -2.434000
h    7.459000 10.767000 -2.260000
h    8.671000 12.016000 -2.432000
c    7.064000 12.136000 -3.848000
h    7.497000 11.396000 -4.521000
o    5.645000 12.015000 -3.879000
c    5.102000 13.188000 -4.466000
h    5.072000 13.066000 -5.554000
n    3.740000 13.431000 -3.922000
c    3.535000 13.504000 -2.560000
h    4.393000 13.460000 -1.901000
c    2.277000 13.572000 -2.048000
c    2.094000 13.616000 -0.542000
h    1.533000 14.512000 -0.281000
h    1.517000 12.752000 -0.216000
h    3.053000 13.630000 -0.024000
c    1.111000 13.585000 -2.932000
o    -0.070000 13.572000 -2.588000
n    1.407000 13.576000 -4.276000
h    0.638000 13.617000 -4.930000
c    2.665000 13.480000 -4.817000
o    2.788000 13.404000 -6.037000
c    7.399000 13.525000 -4.413000
h    8.250000 13.965000 -3.885000
c    6.109000 14.287000 -4.144000
h    6.064000 14.584000 -3.097000
h    5.999000 15.147000 -4.805000
o    7.651000 13.416000 -5.818000
p    8.367000 14.596000 -6.645000
o    9.296000 13.932000 -7.610000
o    8.963000 15.513000 -5.684000
o    7.204000 15.468000 -7.362000
c    6.502000 14.924000 -8.466000
h    6.119000 13.939000 -8.205000
h    7.182000 14.821000 -9.313000
c    5.324000 15.755000 -8.968000
h    4.914000 15.122000 -9.756000
o    4.334000 15.884000 -7.966000
c    3.812000 17.180000 -8.007000
h    3.029000 17.242000 -8.762000
n    3.187000 17.381000 -6.655000
c    4.049000 17.469000 -5.566000
h    5.126000 17.552000 -5.615000
c    3.561000 17.458000 -4.297000
c    4.607000 17.524000 -3.154000
h    4.295000 18.285000 -2.438000
h    4.488000 16.573000 -2.633000
h    5.640000 17.525000 -3.501000
c    2.138000 17.224000 -4.060000
o    1.578000 17.155000 -2.937000
n    1.350000 17.217000 -5.211000
h    0.358000 17.080000 -5.095000
c    1.767000 17.270000 -6.480000
o    1.052000 17.250000 -7.447000
c    5.785000 17.132000 -9.378000
h    6.854000 17.278000 -9.225000
c    5.013000 18.035000 -8.389000
h    5.613000 18.143000 -7.486000
h    4.721000 18.965000 -8.880000
o    5.478000 17.361000 -10.720000
p    5.845000 18.675000 -11.577000
o    5.806000 18.284000 -13.009000
o    7.006000 19.283000 -10.950000
o    4.493000 19.468000 -11.255000
c    3.236000 18.951000 -11.684000
h    3.130000 17.928000 -11.321000
h    3.280000 18.946000 -12.773000
c    2.108000 19.869000 -11.295000
h    1.205000 19.578000 -11.834000
o    1.885000 19.775000 -9.914000
c    1.710000 21.038000 -9.445000
h    0.696000 21.307000 -9.742000
n    1.937000 21.168000 -7.992000
c    3.195000 21.060000 -7.476000
h    4.119000 21.026000 -8.033000
c    3.374000 21.010000 -6.122000
h    4.371000 20.895000 -5.725000
c    2.242000 21.124000 -5.343000
n    2.358000 21.288000 -4.109000
h    1.499000 21.330000 -3.578000
h    3.305000 21.307000 -3.758000
n    0.977000 21.164000 -5.818000
c    0.819000 21.090000 -7.188000
o    -0.341000 20.959000 -7.593000
c    2.391000 21.334000 -11.608000
h    3.262000 21.327000 -12.263000
c    2.600000 21.984000 -10.215000
h    3.658000 21.914000 -9.964000
h    2.158000 22.980000 -10.192000
o    1.211000 21.877000 -12.207000
p    1.227000 22.788000 -13.574000
o    1.541000 21.829000 -14.702000
o    2.133000 23.959000 -13.373000
o    -0.339000 23.301000 -13.628000
c    -1.340000 22.364000 -13.886000
h    -1.005000 21.353000 -13.658000
h    -1.591000 22.539000 -14.932000
c    -2.579000 22.608000 -13.020000
h    -3.365000 21.900000 -13.286000
o    -2.192000 22.343000 -11.734000
c    -2.746000 23.268000 -10.820000
h    -3.758000 23.074000 -10.470000
n    -1.857000 23.512000 -9.677000
c    -0.588000 23.841000 -9.810000
h    0.080000 23.684000 -10.644000
n    -0.028000 24.185000 -8.655000
c    -1.087000 24.126000 -7.745000
c    -1.062000 24.405000 -6.380000
o    -0.128000 24.763000 -5.642000
n    -2.308000 24.302000 -5.804000
h    -2.542000 24.425000 -4.830000
c    -3.475000 23.937000 -6.488000
n    -4.536000 23.780000 -5.766000
h    -4.530000 24.032000 -4.788000
h    -5.318000 23.269000 -6.151000
n    -3.489000 23.536000 -7.732000
c    -2.266000 23.749000 -8.362000
c    -3.288000 23.946000 -13.104000
h    -2.813000 24.503000 -13.911000
c    -2.874000 24.520000 -11.754000
h    -1.886000 24.911000 -12.002000
h    -3.659000 25.138000 -11.320000
o    -4.691000 23.696000 -13.367000
p    -5.622000 24.834000 -14.060000
o    -7.021000 24.368000 -14.220000
o    -4.916000 25.316000 -15.263000
o    -5.596000 26.031000 -12.892000
c    -6.541000 26.091000 -11.808000
h    -6.692000 25.078000 -11.431000
h    -7.483000 26.383000 -12.273000
c    -6.137000 27.074000 -10.694000
h    -7.002000 27.088000 -10.030000
o    -4.939000 26.737000 -10.051000
c    -4.592000 27.749000 -9.185000
h    -5.169000 27.609000 -8.269000
n    -3.158000 27.693000 -8.868000
c    -2.153000 27.379000 -9.779000
h    -2.478000 27.162000 -10.785000
c    -0.855000 27.382000 -9.454000
h    -0.107000 27.186000 -10.209000
c    -0.593000 27.499000 -8.067000
n    0.603000 27.283000 -7.526000
h    0.663000 27.169000 -6.524000
h    1.459000 27.094000 -8.025000
n    -1.479000 27.690000 -7.165000
c    -2.759000 27.781000 -7.523000
o    -3.565000 28.078000 -6.658000
c    -5.936000 28.530000 -11.022000
h    -5.320000 28.658000 -11.913000
c    -5.059000 29.020000 -9.855000
h    -4.241000 29.586000 -10.300000
h    -5.598000 29.603000 -9.109000
o    -7.200000 29.198000 -11.102000
p    -7.452000 30.745000 -11.075000
o    -8.835000 30.904000 -11.494000
o    -6.448000 31.452000 -11.875000
o    -7.390000 31.233000 -9.499000
c    -8.237000 30.599000 -8.577000
h    -8.129000 29.516000 -8.521000
h    -9.237000 30.840000 -8.938000
c    -8.195000 31.179000 -7.138000
h    -9.017000 30.829000 -6.514000
o    -6.969000 30.681000 -6.566000
c    -6.205000 31.766000 -5.973000
h    -6.368000 31.925000 -4.907000
n    -4.764000 31.697000 -6.191000
c    -4.078000 31.490000 -7.338000
h    -4.618000 31.442000 -8.271000
n    -2.753000 31.352000 -7.298000
c    -2.580000 31.325000 -5.870000
c    -1.418000 31.178000 -5.021000
o    -0.288000 31.019000 -5.336000
n    -1.696000 31.123000 -3.708000
h    -0.912000 31.072000 -3.072000
c    -2.870000 31.216000 -3.158000
n    -2.891000 31.440000 -1.867000
h    -2.020000 31.253000 -1.389000
h    -3.797000 31.452000 -1.422000
n    -4.034000 31.426000 -3.875000
c    -3.788000 31.501000 -5.219000
c    -8.176000 32.766000 -7.044000
h    -8.559000 33.149000 -7.990000
c    -6.723000 33.063000 -6.728000
h    -6.133000 33.166000 -7.639000
h    -6.744000 34.036000 -6.238000
o    -9.021000 33.280000 -5.995000
h    -8.971000 34.235000 -6.084000
h    5.877000 31.177000 2.334000
o    5.238000 31.739000 1.889000
c    4.644000 32.554000 2.848000
h    4.782000 33.609000 2.616000
h    5.068000 32.553000 3.853000
c    3.141000 32.219000 3.143000
h    2.928000 32.879000 3.982000
o    2.172000 32.589000 2.187000
c    1.678000 31.430000 1.522000
h    0.622000 31.402000 1.792000
n    1.816000 31.509000 0.014000
c    3.055000 31.833000 -0.531000
h    3.866000 32.154000 0.107000
c    3.149000 31.925000 -1.873000
h    4.073000 32.132000 -2.392000
c    1.994000 31.777000 -2.638000
n    1.984000 31.781000 -3.933000
h    1.115000 31.512000 -4.374000
h    2.863000 31.547000 -4.373000
n    0.819000 31.590000 -2.113000
c    0.667000 31.447000 -0.823000
o    -0.466000 31.270000 -0.419000
c    2.933000 30.764000 3.441000
h    3.818000 30.304000 3.882000
c    2.471000 30.230000 2.115000
h    3.300000 29.969000 1.457000
h    1.835000 29.364000 2.300000
o    1.785000 30.743000 4.358000
p    1.497000 29.571000 5.324000
o    0.694000 29.943000 6.491000
o    2.720000 28.695000 5.506000
o    0.571000 28.752000 4.477000
c    -0.735000 29.155000 4.099000
h    -0.715000 30.139000 3.629000
h    -1.480000 29.175000 4.894000
c    -1.242000 28.298000 2.946000
h    -2.327000 28.344000 3.011000
o    -0.854000 28.685000 1.606000
c    -0.659000 27.528000 0.814000
h    -1.604000 27.031000 0.595000
n    0.114000 27.791000 -0.392000
c    1.503000 27.859000 -0.558000
h    2.235000 27.928000 0.233000
n    1.917000 27.883000 -1.762000
c    0.724000 27.901000 -2.484000
c    0.501000 27.887000 -3.904000
o    1.314000 27.732000 -4.809000
n    -0.825000 27.849000 -4.237000
h    -1.159000 27.899000 -5.189000
c    -1.849000 27.893000 -3.365000
n    -3.001000 27.967000 -3.834000
h    -3.151000 27.981000 -4.832000
h    -3.771000 28.041000 -3.186000
n    -1.668000 27.887000 -2.067000
c    -0.381000 27.863000 -1.684000
c    -0.782000 26.842000 3.034000
h    -0.292000 26.513000 3.950000
c    0.120000 26.647000 1.800000
h    1.148000 26.959000 1.984000
h    0.051000 25.665000 1.331000
o    -1.858000 26.006000 2.887000
p    -2.700000 25.407000 4.102000
o    -3.091000 26.477000 5.011000
o    -1.848000 24.320000 4.616000
o    -3.973000 24.843000 3.396000
c    -5.079000 25.687000 3.025000
h    -4.701000 26.643000 2.663000
h    -5.746000 25.708000 3.887000
c    -5.901000 25.191000 1.818000
h    -6.739000 25.875000 1.962000
o    -5.192000 25.383000 0.553000
c    -5.220000 24.186000 -0.195000
h    -6.101000 24.276000 -0.832000
n    -3.881000 24.093000 -0.878000
c    -2.651000 24.111000 -0.219000
h    -2.717000 24.164000 0.858000
c    -1.472000 24.191000 -0.873000
h    -0.512000 24.105000 -0.386000
c    -1.617000 24.210000 -2.279000
n    -0.574000 24.064000 -2.986000
h    -0.605000 24.115000 -3.993000
h    0.273000 24.050000 -2.434000
n    -2.751000 24.198000 -2.887000
c    -3.941000 24.144000 -2.257000
o    -4.951000 24.088000 -2.882000
c    -6.428000 23.782000 1.811000
h    -6.381000 23.434000 2.843000
c    -5.434000 23.070000 0.871000
h    -4.503000 22.887000 1.406000
h    -5.851000 22.136000 0.491000
o    -7.811000 23.788000 1.345000
p    -8.642000 22.475000 1.050000
o    -10.065000 22.936000 0.956000
o    -8.145000 21.486000 2.104000
o    -8.201000 21.948000 -0.353000
c    -8.789000 22.290000 -1.640000
h    -8.541000 23.317000 -1.903000
h    -9.868000 22.138000 -1.606000
c    -8.259000 21.328000 -2.723000
h    -8.862000 21.459000 -3.621000
o    -6.856000 21.331000 -2.875000
c    -6.267000 20.068000 -2.773000
h    -6.318000 19.508000 -3.707000
n    -4.859000 20.071000 -2.246000
c    -4.315000 19.925000 -1.014000
h    -4.954000 19.748000 -0.160000
n    -3.032000 20.240000 -0.939000
c    -2.628000 20.371000 -2.262000
c    -1.335000 20.494000 -2.920000
o    -0.174000 20.461000 -2.508000
n    -1.531000 20.875000 -4.250000
h    -0.650000 20.978000 -4.733000
c    -2.650000 20.655000 -4.940000
n    -2.699000 20.694000 -6.237000
h    -1.794000 20.829000 -6.664000
h    -3.618000 20.590000 -6.642000
n    -3.830000 20.538000 -4.456000
c    -3.816000 20.375000 -3.080000
c    -8.587000 19.869000 -2.339000
h    -9.418000 19.849000 -1.634000
c    -7.248000 19.339000 -1.815000
h    -7.260000 19.659000 -0.773000
h    -7.148000 18.255000 -1.871000
o    -8.759000 19.026000 -3.472000
p    -10.080000 18.234000 -3.745000
o    -11.159000 19.200000 -4.030000
o    -10.200000 17.299000 -2.612000
o    -9.840000 17.407000 -5.090000
c    -9.458000 18.170000 -6.254000
h    -9.212000 19.205000 -6.016000
h    -10.383000 18.208000 -6.827000
c    -8.267000 17.546000 -7.185000
h    -8.264000 18.106000 -8.119000
o    -6.971000 17.723000 -6.603000
c    -6.438000 16.441000 -6.415000
h    -5.921000 16.133000 -7.324000
n    -5.467000 16.357000 -5.286000
c    -5.666000 16.135000 -3.954000
h    -6.661000 15.981000 -3.561000
n    -4.655000 16.377000 -3.187000
c    -3.600000 16.652000 -4.103000
c    -2.211000 16.990000 -4.089000
n    -1.460000 17.199000 -3.032000
h    -0.545000 17.537000 -3.286000
h    -1.833000 17.035000 -2.108000
n    -1.555000 17.391000 -5.175000
c    -2.243000 17.225000 -6.318000
h    -1.646000 17.522000 -7.168000
n    -3.532000 16.928000 -6.554000
c    -4.142000 16.714000 -5.364000
c    -8.489000 15.998000 -7.351000
h    -9.548000 15.759000 -7.260000
c    -7.618000 15.576000 -6.192000
h    -8.162000 15.748000 -5.262000
h    -7.310000 14.532000 -6.251000
o    -8.012000 15.571000 -8.612000
p    -8.498000 14.149000 -9.195000
o    -9.631000 14.414000 -10.102000
o    -8.683000 13.196000 -8.072000
o    -7.262000 13.645000 -10.058000
c    -6.926000 14.276000 -11.281000
h    -6.953000 15.352000 -11.139000
h    -7.658000 14.010000 -12.044000
c    -5.520000 13.949000 -11.790000
h    -5.361000 14.531000 -12.695000
o    -4.560000 14.335000 -10.811000
c    -3.905000 13.189000 -10.291000
h    -2.896000 13.128000 -10.711000
n    -3.842000 13.306000 -8.811000
c    -4.875000 13.216000 -7.905000
h    -5.902000 13.060000 -8.209000
n    -4.513000 13.301000 -6.651000
c    -3.128000 13.511000 -6.745000
c    -2.087000 13.680000 -5.803000
n    -2.251000 13.662000 -4.493000
h    -1.439000 13.751000 -3.893000
h    -3.177000 13.560000 -4.114000
n    -0.823000 13.846000 -6.189000
c    -0.570000 13.869000 -7.493000
h    0.465000 14.013000 -7.774000
n    -1.434000 13.721000 -8.494000
c    -2.714000 13.540000 -8.051000
c    -5.266000 12.479000 -12.117000
h    -6.193000 11.964000 -12.376000
c    -4.708000 11.984000 -10.787000
h    -5.530000 11.745000 -10.113000
h    -4.079000 11.111000 -10.925000
o    -4.344000 12.430000 -13.203000
p    -3.828000 11.061000 -13.834000
o    -3.446000 11.337000 -15.232000
o    -4.842000 10.022000 -13.577000
o    -2.500000 10.707000 -13.014000
c    -1.349000 11.527000 -13.191000
h    -1.627000 12.571000 -13.033000
h    -1.003000 11.426000 -14.220000
c    -0.172000 11.218000 -12.262000
h    0.635000 11.912000 -12.508000
o    -0.562000 11.421000 -10.910000
c    -0.097000 10.325000 -10.150000
h    0.955000 10.486000 -9.895000
n    -0.922000 10.195000 -8.924000
c    -2.273000 9.922000 -9.002000
h    -2.716000 9.754000 -9.974000
c    -3.046000 9.881000 -7.885000
c    -4.523000 9.553000 -8.018000
h    -5.116000 10.398000 -7.673000
h    -4.787000 9.326000 -9.051000
h    -4.760000 8.693000 -7.391000
c    -2.454000 10.116000 -6.568000
o    -3.032000 10.095000 -5.483000
n    -1.107000 10.375000 -6.584000
h    -0.650000 10.473000 -5.689000
c    -0.299000 10.412000 -7.691000
o    0.906000 10.603000 -7.547000
c    0.374000 9.786000 -12.369000
h    0.011000 9.294000 -13.274000
c    -0.188000 9.139000 -11.107000
h    -1.218000 8.836000 -11.280000
h    0.410000 8.295000 -10.767000
o    1.793000 9.836000 -12.351000
p    2.707000 8.550000 -12.593000
o    3.940000 9.002000 -13.263000
o    1.891000 7.491000 -13.224000
o    3.053000 8.096000 -11.090000
c    3.780000 8.961000 -10.226000
h    3.228000 9.894000 -10.116000
h    4.748000 9.183000 -10.678000
c    4.024000 8.405000 -8.817000
h    4.678000 9.107000 -8.298000
o    2.822000 8.304000 -8.071000
c    2.986000 7.239000 -7.155000
h    3.662000 7.538000 -6.347000
n    1.670000 6.831000 -6.595000
c    0.539000 6.799000 -7.387000
h    0.645000 6.959000 -8.453000
c    -0.690000 6.606000 -6.836000
c    -1.916000 6.585000 -7.726000
h    -2.356000 5.592000 -7.689000
h    -2.655000 7.285000 -7.344000
h    -1.665000 6.837000 -8.757000
c    -0.844000 6.434000 -5.392000
o    -1.912000 6.323000 -4.783000
n    0.339000 6.391000 -4.694000
h    0.298000 6.260000 -3.693000
c    1.594000 6.563000 -5.224000
o    2.572000 6.496000 -4.487000
c    4.686000 7.019000 -8.784000
h    4.788000 6.641000 -9.803000
c    3.670000 6.179000 -8.005000
h    2.955000 5.726000 -8.693000
h    4.153000 5.426000 -7.385000
o    5.950000 7.093000 -8.123000
p    7.042000 5.934000 -8.270000
o    8.372000 6.573000 -8.198000
o    6.728000 5.182000 -9.500000
o    6.856000 4.962000 -7.013000
c    7.287000 5.368000 -5.715000
h    6.944000 6.386000 -5.527000
h    8.378000 5.374000 -5.687000
c    6.770000 4.493000 -4.559000
h    7.235000 4.847000 -3.639000
o    5.356000 4.635000 -4.442000
c    4.803000 3.348000 -4.238000
h    4.947000 3.057000 -3.191000
n    3.345000 3.301000 -4.556000
c    2.874000 3.230000 -5.846000
h    3.570000 3.273000 -6.673000
c    1.544000 3.095000 -6.081000
h    1.174000 3.022000 -7.090000
c    0.691000 3.029000 -4.947000
n    -0.593000 2.882000 -5.093000
h    -1.149000 2.864000 -4.251000
h    -0.991000 2.759000 -6.012000
n    1.103000 3.157000 -3.707000
c    2.434000 3.300000 -3.488000
o    2.801000 3.422000 -2.319000
c    7.063000 2.987000 -4.688000
h    7.812000 2.785000 -5.452000
c    5.697000 2.449000 -5.092000
h    5.545000 2.607000 -6.159000
h    5.575000 1.401000 -4.828000
o    7.423000 2.425000 -3.434000
p    8.710000 1.502000 -3.261000
o    9.918000 2.323000 -3.503000
o    8.486000 0.255000 -4.030000
o    8.631000 1.123000 -1.716000
c    8.931000 2.066000 -0.697000
h    8.591000 3.057000 -1.004000
h    10.011000 2.105000 -0.554000
c    8.249000 1.727000 0.641000
h    8.670000 2.388000 1.400000
o    6.844000 1.967000 0.539000
c    6.129000 0.768000 0.721000
h    5.756000 0.727000 1.763000
n    4.990657 0.670361 -0.240895
c    5.104218 0.584474 -1.622608
h    6.054013 0.724204 -2.123051
n    3.955334 0.357143 -2.207767
c    3.030318 0.282380 -1.175146
c    1.615257 0.083736 -1.187382
o    0.948509 -0.062444 -2.253100
n    0.996931 0.059910 0.050993
h    -0.458518 0.047718 0.112380
c    1.734682 0.242662 1.189302
n    1.075762 0.192479 2.368703
h    0.066560 0.080865 2.406871
h    1.603836 0.295420 3.224635
n    3.061283 0.465039 1.256025
c    3.656467 0.468862 0.050244
c    8.416000 0.269000 1.097000
h    9.306000 -0.177000 0.654000
c    7.147000 -0.356000 0.531000
h    7.284000 -0.602000 -0.521000
h    6.868000 -1.252000 1.074000
o    8.469000 0.183000 2.519000
p    8.744000 -1.202000 3.292000
o    9.681000 -0.901000 4.399000
o    9.128000 -2.235000 2.310000
o    7.309000 -1.605000 3.886000
c    6.688000 -0.840000 4.915000
h    6.578000 0.190000 4.572000
h    7.337000 -0.837000 5.790000
c    5.298000 -1.328000 5.369000
h    4.958000 -0.632000 6.136000
o    4.359000 -1.319000 4.296000
c    3.829000 -2.627000 4.104000
h    2.878000 -2.726000 4.638000
n    3.627000 -2.866000 2.652000
c    4.693000 -2.804000 1.795000
h    5.682000 -2.642000 2.206000
c    4.499000 -2.907000 0.459000
h    5.336000 -2.831000 -0.212000
c    3.167000 -3.095000 0.008000
n    2.929000 -3.173000 -1.269000
h    1.951000 -3.203000 -1.543000
h    3.641000 -2.879000 -1.913000
n    2.128000 -3.192000 0.812000
c    2.334000 -3.060000 2.148000
o    1.348000 -3.114000 2.888000
c    5.244000 -2.741000 5.964000
h    6.215000 -3.042000 6.363000
c    4.840000 -3.573000 4.755000
h    5.709000 -3.752000 4.123000
h    4.382000 -4.516000 5.046000
o    4.239000 -2.755000 6.971000
p    3.998000 -4.007000 7.939000
o    3.492000 -3.448000 9.207000
o    5.226000 -4.832000 7.966000
o    2.821000 -4.830000 7.246000
c    1.472000 -4.407000 7.410000
h    1.376000 -3.366000 7.111000
h    1.207000 -4.476000 8.466000
c    0.451000 -5.223000 6.614000
h    -0.538000 -4.800000 6.794000
o    0.736000 -5.144000 5.225000
c    0.649000 -6.450000 4.693000
h    -0.398000 -6.689000 4.486000
n    1.438000 -6.526000 3.448000
c    2.800000 -6.437000 3.286000
h    3.474000 -6.362000 4.128000
n    3.196000 -6.421000 2.040000
c    1.992000 -6.524000 1.324000
c    1.728000 -6.553000 -0.087000
o    2.530000 -6.517000 -1.024000
n    0.387000 -6.646000 -0.397000
h    0.128000 -6.637000 -1.372000
c    -0.596000 -6.755000 0.527000
n    -1.822000 -6.856000 0.085000
h    -2.023000 -6.739000 -0.908000
h    -2.560000 -6.885000 0.767000
n    -0.404000 -6.775000 1.844000
c    0.917000 -6.626000 2.181000
c    0.441000 -6.711000 7.001000
h    0.986000 -6.879000 7.933000
c    1.164000 -7.343000 5.819000
h    2.242000 -7.237000 5.944000
h    0.884000 -8.386000 5.673000
o    -0.883000 -7.223000 7.088000
h    -0.830000 -8.094000 7.538000
na   2.433000 -3.320000 11.198000
na   0.060000 11.712000 4.294000
na   -0.407000 4.833000 8.960000
na   -5.518000 2.874000 -5.299000
na   -1.945000 -18.145000 -8.028000
na   -7.553000 10.452000 -5.195000
na   -15.040000 14.379000 -2.083000
na   1.572000 15.405000 -14.052000
na   -10.689000 -9.705000 4.539000
o    -8.068000 14.250000 0.834000
h    -8.180000 14.916000 0.118000
h    -7.177000 14.517000 1.163000
o    -15.059000 42.370000 -0.922000
h    -14.316000 42.729000 -0.436000
h    -15.827000 42.763000 -0.508000
o    23.697000 16.384000 -5.535000
h    22.767000 16.232000 -5.373000
h    24.133000 16.079000 -4.741000
o    -6.648000 9.893000 -15.564000
h    -7.323000 10.565000 -15.461000
h    -6.055000 10.035000 -14.826000
o    10.705000 36.429000 14.817000
h    10.484000 35.514000 14.994000
h    10.307000 36.916000 15.539000
o    -11.979000 -1.883000 8.418000
h    -12.363000 -1.825000 7.507000
h    -11.574000 -0.981000 8.462000
o    -15.165000 10.509000 -22.379000
h    -15.232000 10.231000 -23.292000
h    -14.674000 9.808000 -21.951000
o    -0.915000 -6.963000 22.064000
h    -0.060000 -6.575000 21.877000
h    -0.881000 -7.179000 22.997000
o    -16.050000 25.755000 11.294000
h    -16.889000 25.980000 10.892000
h    -16.275000 25.504000 12.189000
o    -15.616000 -1.014000 -13.830000
h    -14.879000 -1.079000 -13.223000
h    -16.158000 -0.311000 -13.472000
o    -19.683000 1.879000 15.681000
h    -20.304000 2.455000 15.236000
h    -18.867000 2.379000 15.704000
o    -20.434000 20.757000 -0.491000
h    -19.708000 21.190000 -0.042000
h    -20.076000 19.912000 -0.765000
o    14.996000 33.540000 -12.358000
h    15.533000 33.836000 -13.094000
h    15.401000 33.944000 -11.590000
o    -5.980000 5.363000 -14.509000
h    -5.675000 5.018000 -15.349000
h    -6.086000 6.302000 -14.659000
o    -18.908000 20.155000 7.360000
h    -18.616000 19.986000 6.465000
h    -19.763000 20.573000 7.258000
o    13.596000 18.878000 -8.360000
h    13.168000 18.631000 -9.180000
h    13.234000 18.277000 -7.709000
o    11.874000 30.325000 -6.694000
h    12.233000 29.799000 -7.407000
h    10.964000 30.481000 -6.946000
o    4.883000 19.192000 3.406000
h    5.720000 18.745000 3.527000
h    4.461000 18.723000 2.687000
o    -20.092000 20.067000 -12.440000
h    -20.515000 20.132000 -13.297000
h    -19.715000 19.188000 -12.425000
o    -6.996000 6.464000 16.584000
h    -7.699000 6.156000 17.154000
h    -6.713000 5.682000 16.110000
o    14.097000 2.123000 10.333000
h    14.874000 1.750000 9.916000
h    13.638000 2.573000 9.624000
o    -21.455000 14.179000 -5.913000
h    -22.216000 13.645000 -6.142000
h    -20.836000 14.034000 -6.629000
o    0.228000 -11.510000 15.952000
h    0.113000 -10.563000 15.883000
h    0.382000 -11.664000 16.884000
o    16.570000 29.190000 -6.180000
h    17.271000 29.670000 -5.740000
h    16.968000 28.877000 -6.993000
o    -8.382000 44.746000 -2.332000
h    -8.535000 43.819000 -2.146000
h    -8.939000 45.211000 -1.710000
o    -0.856000 -4.623000 -18.101000
h    -0.437000 -3.905000 -17.625000
h    -1.740000 -4.302000 -18.286000
o    -24.559000 27.018000 3.118000
h    -24.881000 27.525000 3.863000
h    -23.984000 26.359000 3.506000
o    13.384000 12.939000 16.351000
h    13.794000 13.795000 16.474000
h    13.479000 12.503000 17.199000
o    6.241000 12.821000 9.631000
h    6.533000 12.018000 10.107000
h    5.781000 12.415000 8.865000
o    4.497000 28.633000 -14.707000
h    4.069000 29.449000 -14.964000
h    4.093000 28.406000 -13.868000
o    -17.945000 -4.324000 -2.369000
h    -18.843000 -4.617000 -2.207000
h    -17.406000 -4.895000 -1.824000
o    -1.744000 13.824000 16.745000
h    -1.328000 14.642000 16.472000
h    -2.536000 13.768000 16.211000
o    2.403000 5.218000 -27.948000
h    2.356000 4.262000 -27.978000
h    1.635000 5.479000 -27.440000
o    15.813000 2.921000 -17.633000
h    16.092000 2.762000 -16.730000
h    16.230000 3.749000 -17.868000
o    -18.119000 32.917000 0.720000
h    -18.989000 32.799000 1.103000
h    -18.290000 33.174000 -0.186000
o    -17.307000 39.396000 -7.689000
h    -16.597000 39.164000 -8.287000
h    -17.435000 40.335000 -7.824000