9238
Energy = 0.00 kcal/mol
h    -2.423246 -6.793539 -9.015156
o    -3.298186 -6.352753 -9.076541
c    -4.321899 -7.239964 -8.629827
h    -4.000353 -8.272263 -8.779562
h    -5.216411 -7.082816 -9.234808
c    -4.708010 -7.048930 -7.150063
h    -5.525894 -7.731544 -6.915247
o    -3.591148 -7.369394 -6.324849
c    -3.466832 -6.362872 -5.331269
h    -4.126756 -6.587766 -4.485217
n    -2.045544 -6.265461 -4.899897
c    -1.062044 -6.061753 -5.834355
h    -1.334391 -5.965741 -6.877743
c    0.234065 -5.984829 -5.455070
h    1.007086 -5.831410 -6.188191
c    0.514265 -6.095043 -4.073220
n    1.743958 -5.966876 -3.668680
h    1.898891 -5.960377 -2.667995
h    2.408938 -5.550321 -4.314975
n    -0.401873 -6.336870 -3.157951
c    -1.699242 -6.421616 -3.548286
o    -2.543125 -6.648913 -2.676047
c    -5.169342 -5.623434 -6.792962
h    -5.351852 -5.035894 -7.692583
c    -3.964770 -5.094704 -6.027375
h    -3.229272 -4.703091 -6.729683
h    -4.247837 -4.324650 -5.316542
o    -6.342221 -5.669637 -5.989598
p    -7.253237 -4.373742 -5.707976
o    -8.666953 -4.741702 -5.946372
o    -6.698544 -3.213575 -6.447452
o    -7.062255 -4.068130 -4.140484
c    -7.725440 -4.861438 -3.159855
h    -7.329600 -5.876953 -3.206629
h    -8.785216 -4.907566 -3.415168
c    -7.635672 -4.372462 -1.698387
h    -8.298301 -5.017513 -1.125221
o    -6.322410 -4.507313 -1.153715
c    -5.765046 -3.219504 -0.916730
h    -5.716783 -3.022182 0.158379
n    -4.402549 -3.195744 -1.500192
c    -4.064013 -3.151060 -2.829630
h    -4.813544 -3.103370 -3.609611
n    -2.781167 -3.185219 -3.066638
c    -2.219384 -3.263521 -1.784115
c    -0.846079 -3.310844 -1.357474
o    0.180789 -3.319460 -2.034790
n    -0.695244 -3.325324 0.008142
h    0.249011 -3.286707 0.364074
c    -1.725492 -3.305767 0.881234
n    -1.394426 -3.240706 2.138429
h    -0.412079 -3.256364 2.399388
h    -2.102245 -3.113557 2.846843
n    -3.018585 -3.279982 0.546317
c    -3.204084 -3.258090 -0.815218
c    -8.073238 -2.924536 -1.440674
h    -8.777144 -2.569459 -2.197442
c    -6.728949 -2.214193 -1.558796
h    -6.504065 -2.048730 -2.611129
h    -6.729874 -1.259723 -1.041119
o    -8.664116 -2.880988 -0.143109
p    -9.054415 -1.529506 0.622176
o    -10.140129 -1.861653 1.574673
o    -9.249931 -0.424350 -0.332514
o    -7.734454 -1.228260 1.461619
c    -7.361465 -2.041234 2.564483
h    -7.088533 -3.037847 2.214684
h    -8.204632 -2.134878 3.250894
c    -6.183936 -1.433589 3.333565
h    -5.986419 -2.054215 4.208151
o    -5.026425 -1.391786 2.503546
c    -4.488965 -0.101336 2.538291
h    -3.825057 -0.004251 3.422725
n    -3.740677 0.114965 1.263979
c    -4.416888 0.141268 0.072303
h    -5.502294 0.148050 0.115615
c    -3.768370 0.151147 -1.118292
h    -4.312821 0.203229 -2.055620
c    -2.339706 0.083717 -1.117435
n    -1.618674 0.030025 -2.214883
h    -0.530924 -0.034013 -2.199951
h    -2.109148 0.081974 -3.099206
n    -1.701491 0.068375 0.092669
c    -2.348911 0.084820 1.308996
o    -1.718426 0.070576 2.366429
c    -6.465824 0.005799 3.790599
h    -7.535260 0.223133 3.723915
c    -5.685269 0.818737 2.760913
h    -6.300107 0.948895 1.871851
h    -5.380920 1.793979 3.136644
o    -5.988784 0.214209 5.114194
p    -6.401930 1.531441 5.931967
o    -6.211658 1.225387 7.367954
o    -7.728070 1.969407 5.457325
o    -5.302402 2.595414 5.495127
c    -3.981251 2.494787 5.992300
h    -3.653403 1.460323 5.895584
h    -3.979635 2.759833 7.050477
c    -2.960418 3.373476 5.263652
h    -2.007526 3.251423 5.769991
o    -2.814812 2.951017 3.908293
c    -2.847436 4.117568 3.110640
h    -1.870062 4.604385 3.148014
n    -3.138267 3.820432 1.693301
c    -4.335433 3.797019 1.021241
h    -5.289216 3.931564 1.521687
n    -4.215713 3.610015 -0.269342
c    -2.829848 3.501063 -0.466737
c    -2.034715 3.308014 -1.655335
o    -2.392340 3.200391 -2.831733
n    -0.682402 3.211056 -1.397775
h    -0.055395 3.135135 -2.186429
c    -0.139874 3.292137 -0.160764
n    1.155428 3.207675 -0.082590
h    1.722333 3.167544 -0.928260
h    1.596135 3.330012 0.814960
n    -0.824859 3.489909 0.961919
c    -2.172402 3.588163 0.741680
c    -3.301079 4.872728 5.247432
h    -4.043209 5.139163 6.003221
c    -3.851623 5.012084 3.834379
h    -4.865405 4.612675 3.772221
h    -3.804583 6.042458 3.493391
o    -2.106539 5.646175 5.339811
p    -1.883124 6.780206 6.431499
o    -1.888883 6.178042 7.788418
o    -2.778679 7.917179 6.136349
o    -0.403869 7.247520 6.086974
c    0.721818 6.449511 6.416600
h    0.421297 5.407451 6.473988
h    1.112009 6.757700 7.386840
c    1.840544 6.530976 5.373571
h    2.673368 5.925164 5.734646
o    1.380325 6.006279 4.129310
c    1.519003 7.003296 3.126873
h    2.463719 6.862519 2.591893
n    0.389398 6.932918 2.173950
c    -0.947460 7.152484 2.406177
h    -1.339017 7.337041 3.400088
n    -1.693622 7.125160 1.331318
c    -0.763763 6.854422 0.310996
c    -0.822905 6.695352 -1.095643
n    -1.895005 6.806258 -1.856438
h    -1.784675 6.671654 -2.850043
h    -2.778248 7.127199 -1.476315
n    0.266682 6.399739 -1.800334
c    1.418855 6.263666 -1.159734
h    2.278412 6.024728 -1.772352
n    1.643403 6.393849 0.145527
c    0.497606 6.697042 0.824336
c    2.343682 7.954853 5.115128
h    2.106143 8.609292 5.957911
c    1.572049 8.341301 3.862717
h    0.574545 8.685593 4.133257
h    2.098866 9.099840 3.284627
o    3.740704 7.902176 4.875330
p    4.671230 9.199300 4.954003
o    5.943464 8.721904 5.540581
o    3.941450 10.285087 5.636662
o    4.864952 9.609302 3.420082
c    5.674376 8.821009 2.558043
h    5.554484 7.768854 2.808130
h    6.718347 9.089161 2.719381
c    5.349249 8.976930 1.065878
h    6.020161 8.328615 0.498856
o    4.007820 8.648712 0.747501
c    3.782850 9.128147 -0.572259
h    3.998973 8.334756 -1.295218
n    2.387627 9.570463 -0.765802
c    1.450722 9.930403 0.170619
h    1.680215 9.978413 1.226673
n    0.266751 10.187623 -0.325488
c    0.460116 10.006018 -1.706647
c    -0.357520 10.088353 -2.860331
n    -1.643673 10.376511 -2.877295
h    -2.126389 10.350293 -3.765525
h    -2.108569 10.618405 -2.016230
n    0.148567 9.891449 -4.074489
c    1.436906 9.614615 -4.179747
h    1.803063 9.460588 -5.184708
n    2.328478 9.483477 -3.206500
c    1.761288 9.680349 -1.981969
c    5.493043 10.395147 0.534923
h    4.960819 11.081549 1.188629
c    4.767536 10.277610 -0.798582
h    4.269033 11.212941 -1.048072
h    5.458183 10.004609 -1.594130
o    6.858451 10.724249 0.378104
p    7.357462 12.220271 0.165482
o    8.827927 12.164624 0.309059
o    6.579655 13.105735 1.067172
o    6.986075 12.557437 -1.360551
c    7.596365 11.832546 -2.433336
h    7.458052 10.765692 -2.260161
h    8.670480 12.015403 -2.430558
c    7.064676 12.135599 -3.848218
h    7.497809 11.395415 -4.520280
o    5.645712 12.014053 -3.879888
c    5.102495 13.187251 -4.466347
h    5.072737 13.066024 -5.554388
n    3.740864 13.430017 -3.921675
c    3.535343 13.501465 -2.559539
h    4.394246 13.456848 -1.900512
c    2.277970 13.569517 -2.046742
c    2.095240 13.612000 -0.540854
h    1.535926 14.508704 -0.278533
h    1.517292 12.748936 -0.215947
h    3.055016 13.623519 -0.023060
c    1.111761 13.584061 -2.931342
o    -0.069084 13.571416 -2.586412
n    1.407385 13.575806 -4.274914
h    0.638134 13.616758 -4.929458
c    2.665488 13.479165 -4.816707
o    2.787670 13.403376 -6.035946
c    7.399573 13.524675 -4.413215
h    8.250540 13.964192 -3.885012
c    6.109748 14.286394 -4.143236
h    6.064416 14.582335 -3.096249
h    6.000050 15.146672 -4.803470
o    7.651449 13.415903 -5.817947
p    8.367000 14.596000 -6.645000
o    9.296000 13.932000 -7.610000
o    8.963000 15.513000 -5.684000
o    7.204000 15.468000 -7.362000
c    6.502000 14.924000 -8.466000
h    6.119000 13.939000 -8.205000
h    7.182000 14.821000 -9.313000
c    5.324000 15.755000 -8.968000
h    4.914000 15.122000 -9.756000
o    4.334000 15.884000 -7.966000
c    3.812000 17.180000 -8.007000
h    3.029000 17.242000 -8.762000
n    3.187000 17.381000 -6.655000
c    4.049000 17.469000 -5.566000
h    5.126000 17.552000 -5.615000
c    3.561000 17.458000 -4.297000
c    4.607000 17.524000 -3.154000
h    4.295000 18.285000 -2.438000
h    4.488000 16.573000 -2.633000
h    5.640000 17.525000 -3.501000
c    2.138000 17.224000 -4.060000
o    1.578000 17.155000 -2.937000
n    1.350000 17.217000 -5.211000
h    0.358000 17.080000 -5.095000
c    1.767000 17.270000 -6.480000
o    1.052000 17.250000 -7.447000
c    5.785000 17.132000 -9.378000
h    6.854000 17.278000 -9.225000
c    5.013000 18.035000 -8.389000
h    5.613000 18.143000 -7.486000
h    4.721000 18.965000 -8.880000
o    5.478000 17.361000 -10.720000
p    5.845000 18.675000 -11.577000
o    5.806000 18.284000 -13.009000
o    7.006000 19.283000 -10.950000
o    4.493000 19.468000 -11.255000
c    3.236000 18.951000 -11.684000
h    3.130000 17.928000 -11.321000
h    3.280000 18.946000 -12.773000
c    2.108000 19.869000 -11.295000
h    1.205000 19.578000 -11.834000
o    1.885000 19.775000 -9.914000
c    1.710000 21.038000 -9.445000
h    0.696000 21.307000 -9.742000
n    1.937000 21.168000 -7.992000
c    3.195000 21.060000 -7.476000
h    4.119000 21.026000 -8.033000
c    3.374000 21.010000 -6.122000
h    4.371000 20.895000 -5.725000
c    2.242000 21.124000 -5.343000
n    2.358000 21.288000 -4.109000
h    1.499000 21.330000 -3.578000
h    3.305000 21.307000 -3.758000
n    0.977000 21.164000 -5.818000
c    0.819000 21.090000 -7.188000
o    -0.341000 20.959000 -7.593000
c    2.391000 21.334000 -11.608000
h    3.262000 21.327000 -12.263000
c    2.600000 21.984000 -10.215000
h    3.658000 21.914000 -9.964000
h    2.158000 22.980000 -10.192000
o    1.211000 21.877000 -12.207000
p    1.227000 22.788000 -13.574000
o    1.541000 21.829000 -14.702000
o    2.133000 23.959000 -13.373000
o    -0.339000 23.301000 -13.628000
c    -1.340000 22.364000 -13.886000
h    -1.005000 21.353000 -13.658000
h    -1.591000 22.539000 -14.932000
c    -2.579000 22.608000 -13.020000
h    -3.365000 21.900000 -13.286000
o    -2.192000 22.343000 -11.734000
c    -2.746000 23.268000 -10.820000
h    -3.758000 23.074000 -10.470000
n    -1.857000 23.512000 -9.677000
c    -0.588000 23.841000 -9.810000
h    0.080000 23.684000 -10.644000
n    -0.028000 24.185000 -8.655000
c    -1.087000 24.126000 -7.745000
c    -1.062000 24.405000 -6.380000
o    -0.128000 24.763000 -5.642000
n    -2.308000 24.302000 -5.804000
h    -2.542000 24.425000 -4.830000
c    -3.475000 23.937000 -6.488000
n    -4.536000 23.780000 -5.766000
h    -4.530000 24.032000 -4.788000
h    -5.318000 23.269000 -6.151000
n    -3.489000 23.536000 -7.732000
c    -2.266000 23.749000 -8.362000
c    -3.288000 23.946000 -13.104000
h    -2.813000 24.503000 -13.911000
c    -2.874000 24.520000 -11.754000
h    -1.886000 24.911000 -12.002000
h    -3.659000 25.138000 -11.320000
o    -4.691000 23.696000 -13.367000
p    -5.622000 24.834000 -14.060000
o    -7.021000 24.368000 -14.220000
o    -4.916000 25.316000 -15.263000
o    -5.596000 26.031000 -12.892000
c    -6.541000 26.091000 -11.808000
h    -6.692000 25.078000 -11.431000
h    -7.483000 26.383000 -12.273000
c    -6.137000 27.074000 -10.694000
h    -7.002000 27.088000 -10.030000
o    -4.939000 26.737000 -10.051000
c    -4.592000 27.749000 -9.185000
h    -5.169000 27.609000 -8.269000
n    -3.158000 27.693000 -8.868000
c    -2.153000 27.379000 -9.779000
h    -2.478000 27.162000 -10.785000
c    -0.855000 27.382000 -9.454000
h    -0.107000 27.186000 -10.209000
c    -0.593000 27.499000 -8.067000
n    0.603000 27.283000 -7.526000
h    0.663000 27.169000 -6.524000
h    1.459000 27.094000 -8.025000
n    -1.479000 27.690000 -7.165000
c    -2.759000 27.781000 -7.523000
o    -3.565000 28.078000 -6.658000
c    -5.936000 28.530000 -11.022000
h    -5.320000 28.658000 -11.913000
c    -5.059000 29.020000 -9.855000
h    -4.241000 29.586000 -10.300000
h    -5.598000 29.603000 -9.109000
o    -7.200000 29.198000 -11.102000
p    -7.452000 30.745000 -11.075000
o    -8.835000 30.904000 -11.494000
o    -6.448000 31.452000 -11.875000
o    -7.390000 31.233000 -9.499000
c    -8.237000 30.599000 -8.577000
h    -8.129000 29.516000 -8.521000
h    -9.237000 30.840000 -8.938000
c    -8.195000 31.179000 -7.138000
h    -9.017000 30.829000 -6.514000
o    -6.969000 30.681000 -6.566000
c    -6.205000 31.766000 -5.973000
h    -6.368000 31.925000 -4.907000
n    -4.764000 31.697000 -6.191000
c    -4.078000 31.490000 -7.338000
h    -4.618000 31.442000 -8.271000
n    -2.753000 31.352000 -7.298000
c    -2.580000 31.325000 -5.870000
c    -1.418000 31.178000 -5.021000
o    -0.288000 31.019000 -5.336000
n    -1.696000 31.123000 -3.708000
h    -0.912000 31.072000 -3.072000
c    -2.870000 31.216000 -3.158000
n    -2.891000 31.440000 -1.867000
h    -2.020000 31.253000 -1.389000
h    -3.797000 31.452000 -1.422000
n    -4.034000 31.426000 -3.875000
c    -3.788000 31.501000 -5.219000
c    -8.176000 32.766000 -7.044000
h    -8.559000 33.149000 -7.990000
c    -6.723000 33.063000 -6.728000
h    -6.133000 33.166000 -7.639000
h    -6.744000 34.036000 -6.238000
o    -9.021000 33.280000 -5.995000
h    -8.971000 34.235000 -6.084000
h    5.877000 31.177000 2.334000
o    5.238000 31.739000 1.889000
c    4.644000 32.554000 2.848000
h    4.782000 33.609000 2.616000
h    5.068000 32.553000 3.853000
c    3.141000 32.219000 3.143000
h    2.928000 32.879000 3.982000
o    2.172000 32.589000 2.187000
c    1.678000 31.430000 1.522000
h    0.622000 31.402000 1.792000
n    1.816000 31.509000 0.014000
c    3.055000 31.833000 -0.531000
h    3.866000 32.154000 0.107000
c    3.149000 31.925000 -1.873000
h    4.073000 32.132000 -2.392000
c    1.994000 31.777000 -2.638000
n    1.984000 31.781000 -3.933000
h    1.115000 31.512000 -4.374000
h    2.863000 31.547000 -4.373000
n    0.819000 31.590000 -2.113000
c    0.667000 31.447000 -0.823000
o    -0.466000 31.270000 -0.419000
c    2.933000 30.764000 3.441000
h    3.818000 30.304000 3.882000
c    2.471000 30.230000 2.115000
h    3.300000 29.969000 1.457000
h    1.835000 29.364000 2.300000
o    1.785000 30.743000 4.358000
p    1.497000 29.571000 5.324000
o    0.694000 29.943000 6.491000
o    2.720000 28.695000 5.506000
o    0.571000 28.752000 4.477000
c    -0.735000 29.155000 4.099000
h    -0.715000 30.139000 3.629000
h    -1.480000 29.175000 4.894000
c    -1.242000 28.298000 2.946000
h    -2.327000 28.344000 3.011000
o    -0.854000 28.685000 1.606000
c    -0.659000 27.528000 0.814000
h    -1.604000 27.031000 0.595000
n    0.114000 27.791000 -0.392000
c    1.503000 27.859000 -0.558000
h    2.235000 27.928000 0.233000
n    1.917000 27.883000 -1.762000
c    0.724000 27.901000 -2.484000
c    0.501000 27.887000 -3.904000
o    1.314000 27.732000 -4.809000
n    -0.825000 27.849000 -4.237000
h    -1.159000 27.899000 -5.189000
c    -1.849000 27.893000 -3.365000
n    -3.001000 27.967000 -3.834000
h    -3.151000 27.981000 -4.832000
h    -3.771000 28.041000 -3.186000
n    -1.668000 27.887000 -2.067000
c    -0.381000 27.863000 -1.684000
c    -0.782000 26.842000 3.034000
h    -0.292000 26.513000 3.950000
c    0.120000 26.647000 1.800000
h    1.148000 26.959000 1.984000
h    0.051000 25.665000 1.331000
o    -1.858000 26.006000 2.887000
p    -2.700000 25.407000 4.102000
o    -3.091000 26.477000 5.011000
o    -1.848000 24.320000 4.616000
o    -3.973000 24.843000 3.396000
c    -5.079000 25.687000 3.025000
h    -4.701000 26.643000 2.663000
h    -5.746000 25.708000 3.887000
c    -5.901000 25.191000 1.818000
h    -6.739000 25.875000 1.962000
o    -5.192000 25.383000 0.553000
c    -5.220000 24.186000 -0.195000
h    -6.101000 24.276000 -0.832000
n    -3.881000 24.093000 -0.878000
c    -2.651000 24.111000 -0.219000
h    -2.717000 24.164000 0.858000
c    -1.472000 24.191000 -0.873000
h    -0.512000 24.105000 -0.386000
c    -1.617000 24.210000 -2.279000
n    -0.574000 24.064000 -2.986000
h    -0.605000 24.115000 -3.993000
h    0.273000 24.050000 -2.434000
n    -2.751000 24.198000 -2.887000
c    -3.941000 24.144000 -2.257000
o    -4.951000 24.088000 -2.882000
c    -6.428000 23.782000 1.811000
h    -6.381000 23.434000 2.843000
c    -5.434000 23.070000 0.871000
h    -4.503000 22.887000 1.406000
h    -5.851000 22.136000 0.491000
o    -7.811000 23.788000 1.345000
p    -8.642000 22.475000 1.050000
o    -10.065000 22.936000 0.956000
o    -8.145000 21.486000 2.104000
o    -8.201000 21.948000 -0.353000
c    -8.789000 22.290000 -1.640000
h    -8.541000 23.317000 -1.903000
h    -9.868000 22.138000 -1.606000
c    -8.259000 21.328000 -2.723000
h    -8.862000 21.459000 -3.621000
o    -6.856000 21.331000 -2.875000
c    -6.267000 20.068000 -2.773000
h    -6.318000 19.508000 -3.707000
n    -4.859000 20.071000 -2.246000
c    -4.315000 19.925000 -1.014000
h    -4.954000 19.748000 -0.160000
n    -3.032000 20.240000 -0.939000
c    -2.628000 20.371000 -2.262000
c    -1.335000 20.494000 -2.920000
o    -0.174000 20.461000 -2.508000
n    -1.531000 20.875000 -4.250000
h    -0.650000 20.978000 -4.733000
c    -2.650000 20.655000 -4.940000
n    -2.699000 20.694000 -6.237000
h    -1.794000 20.829000 -6.664000
h    -3.618000 20.590000 -6.642000
n    -3.830000 20.538000 -4.456000
c    -3.816000 20.375000 -3.080000
c    -8.587000 19.869000 -2.339000
h    -9.418000 19.849000 -1.634000
c    -7.248000 19.339000 -1.815000
h    -7.260000 19.659000 -0.773000
h    -7.148000 18.255000 -1.871000
o    -8.759000 19.026000 -3.472000
p    -10.080000 18.234000 -3.745000
o    -11.159000 19.200000 -4.030000
o    -10.200000 17.299000 -2.612000
o    -9.840000 17.407000 -5.090000
c    -9.458000 18.170000 -6.254000
h    -9.212000 19.205000 -6.016000
h    -10.383000 18.208000 -6.827000
c    -8.267000 17.546000 -7.185000
h    -8.264000 18.106000 -8.119000
o    -6.971000 17.723000 -6.603000
c    -6.438000 16.441000 -6.415000
h    -5.921000 16.133000 -7.324000
n    -5.467000 16.357000 -5.286000
c    -5.666000 16.135000 -3.954000
h    -6.661000 15.981000 -3.561000
n    -4.655000 16.377000 -3.187000
c    -3.600000 16.652000 -4.103000
c    -2.211000 16.990000 -4.089000
n    -1.460000 17.199000 -3.032000
h    -0.545000 17.537000 -3.286000
h    -1.833000 17.035000 -2.108000
n    -1.555000 17.391000 -5.175000
c    -2.243000 17.225000 -6.318000
h    -1.646000 17.522000 -7.168000
n    -3.532000 16.928000 -6.554000
c    -4.142000 16.714000 -5.364000
c    -8.489000 15.998000 -7.351000
h    -9.548000 15.759000 -7.260000
c    -7.618000 15.576000 -6.192000
h    -8.162000 15.748000 -5.262000
h    -7.310000 14.532000 -6.251000
o    -8.012000 15.571000 -8.612000
p    -8.498398 14.148727 -9.194734
o    -9.631313 14.413813 -10.101402
o    -8.682575 13.196294 -8.072114
o    -7.262529 13.644802 -10.058441
c    -6.925767 14.275603 -11.281409
h    -6.953414 15.351426 -11.139445
h    -7.657503 14.009211 -12.044633
c    -5.519709 13.948861 -11.789041
h    -5.360873 14.531415 -12.694233
o    -4.560906 14.334915 -10.810264
c    -3.904805 13.189570 -10.290508
h    -2.896205 13.128365 -10.710162
n    -3.842347 13.306366 -8.810074
c    -4.874870 13.215801 -7.904477
h    -5.901549 13.060331 -8.208201
n    -4.512279 13.300852 -6.650387
c    -3.128319 13.509865 -6.744415
c    -2.086606 13.679353 -5.802248
n    -2.250386 13.661526 -4.492392
h    -1.438479 13.751726 -3.892803
h    -3.176084 13.561119 -4.112621
n    -0.823100 13.845017 -6.188615
c    -0.570057 13.868563 -7.492205
h    0.465468 14.012399 -7.773117
n    -1.434276 13.720658 -8.493494
c    -2.713250 13.538986 -8.050641
c    -5.265063 12.479047 -12.116429
h    -6.192392 11.963292 -12.375306
c    -4.707517 11.983583 -10.786275
h    -5.529376 11.744917 -10.112654
h    -4.078143 11.111492 -10.924071
o    -4.343753 12.429776 -13.201862
p    -3.827944 11.061052 -13.833038
o    -3.445788 11.336827 -15.231492
o    -4.841106 10.021919 -13.576474
o    -2.499107 10.706962 -13.013459
c    -1.348448 11.527051 -13.190821
h    -1.626581 12.571545 -13.032978
h    -1.002776 11.426534 -14.219614
c    -0.171135 11.218982 -12.261280
h    0.635529 11.912671 -12.507532
o    -0.562023 11.420919 -10.909482
c    -0.095566 10.325617 -10.149701
h    0.955856 10.487259 -9.894222
n    -0.920396 10.195257 -8.923588
c    -2.271578 9.921426 -9.001881
h    -2.714728 9.754702 -9.973873
c    -3.044716 9.878247 -7.884774
c    -4.521828 9.550242 -8.017901
h    -5.114439 10.395693 -7.672249
h    -4.785803 9.325365 -9.051851
h    -4.758867 8.689566 -7.392786
c    -2.452578 10.111781 -6.568000
o    -3.030646 10.088968 -5.482892
n    -1.106040 10.371513 -6.582979
h    -0.648911 10.470104 -5.688679
c    -0.298090 10.411296 -7.690221
o    0.907400 10.603022 -7.546343
c    0.374340 9.786241 -12.368256
h    0.011632 9.295016 -13.273299
c    -0.186962 9.139594 -11.106476
h    -1.216757 8.835705 -11.279480
h    0.411982 8.295938 -10.766175
o    1.793947 9.836563 -12.351161
p    2.707418 8.549869 -12.592943
o    3.940126 9.001681 -13.263709
o    1.889730 7.491661 -13.224611
o    3.052883 8.095015 -11.090643
c    3.782379 8.958481 -10.226399
h    3.231574 9.891683 -10.116426
h    4.750433 9.178871 -10.679390
c    4.025985 8.401211 -8.817831
h    4.680820 9.102890 -8.298438
o    2.824364 8.301678 -8.071303
c    2.987966 7.236610 -7.155425
h    3.666696 7.533963 -6.349018
n    1.672851 6.830171 -6.592663
c    0.541047 6.796320 -7.382910
h    0.644688 6.955390 -8.449554
c    -0.686557 6.601733 -6.829415
c    -1.913991 6.579021 -7.718168
h    -2.352906 5.584887 -7.680734
h    -2.653089 7.278554 -7.335428
h    -1.664749 6.830967 -8.749604
c    -0.838450 6.429741 -5.385553
o    -1.904896 6.316327 -4.775183
n    0.345947 6.389586 -4.689376
h    0.307199 6.257511 -3.688428
c    1.599958 6.564852 -5.220727
o    2.578263 6.503049 -4.485513
c    4.686110 7.015007 -8.785132
h    4.788505 6.636945 -9.804817
c    3.668853 6.175463 -8.007092
h    2.952585 5.725228 -8.695520
h    4.150100 5.419580 -7.388006
o    5.949780 7.087926 -8.123324
p    7.041797 5.929672 -8.271193
o    8.372020 6.568372 -8.196913
o    6.729005 5.179365 -9.502774
o    6.854817 4.955086 -7.016090
c    7.282653 5.360784 -5.716175
h    6.939331 6.379876 -5.529433
h    8.373320 5.366063 -5.684335
c    6.759830 4.486462 -4.562793
h    7.217927 4.843942 -3.639765
o    5.345800 4.625067 -4.455456
c    4.794539 3.339404 -4.242936
h    4.932638 3.057240 -3.192912
n    3.338648 3.291535 -4.568279
c    2.874951 3.203131 -5.860491
h    3.575074 3.232741 -6.684495
c    1.545594 3.070581 -6.100958
h    1.180941 2.984591 -7.111368
c    0.685911 3.026342 -4.971458
n    -0.597849 2.887480 -5.119427
h    -1.153248 2.886143 -4.276786
h    -0.994715 2.749237 -6.036864
n    1.091490 3.173894 -3.731035
c    2.422021 3.313589 -3.506615
o    2.782949 3.454137 -2.337449
c    7.058372 2.981694 -4.686917
h    7.805914 2.779431 -5.451772
c    5.694319 2.435595 -5.085510
h    5.543468 2.580520 -6.154086
h    5.575239 1.390186 -4.809312
o    7.424670 2.424511 -3.432735
p    8.714739 1.506123 -3.262883
o    9.919847 2.330244 -3.506786
o    8.492293 0.258930 -4.032670
o    8.643335 1.124402 -1.717959
c    8.932268 2.070619 -0.698693
h    8.590472 3.060152 -1.009578
h    10.010953 2.114945 -0.547588
c    8.241941 1.731618 0.634484
h    8.659568 2.389293 1.397662
o    6.840636 1.976126 0.523946
c    6.126168 0.779398 0.711100
h    5.751841 0.738506 1.752670
n    5.000992 0.686910 -0.258276
c    5.109342 0.600264 -1.639431
h    6.054468 0.749189 -2.145578
n    3.958479 0.359557 -2.215957
c    3.041839 0.273673 -1.176834
c    1.632244 0.053488 -1.163559
o    0.945232 -0.101441 -2.223812
n    1.036777 0.015531 0.073410
h    -0.600162 0.030703 0.118355
c    1.776748 0.212252 1.198222
n    1.127078 0.152479 2.387051
h    0.120945 0.034622 2.425115
h    1.655341 0.265039 3.240945
n    3.099985 0.459142 1.257860
c    3.675728 0.468751 0.044118
c    8.404047 0.271247 1.087683
h    9.293517 -0.176242 0.644847
c    7.136586 -0.348320 0.515954
h    7.271979 -0.588317 -0.537815
h    6.852759 -1.245439 1.053644
o    8.452912 0.182046 2.509460
p    8.730889 -1.202705 3.281439
o    9.672057 -0.902337 4.385815
o    9.112058 -2.236127 2.299184
o    7.297934 -1.606506 3.881295
c    6.679213 -0.839369 4.910270
h    6.567232 0.188904 4.564791
h    7.332111 -0.832322 5.783245
c    5.291299 -1.327913 5.372114
h    4.958342 -0.632447 6.143500
o    4.344472 -1.313963 4.305914
c    3.816004 -2.622438 4.109267
h    2.866500 -2.726234 4.643786
n    3.613084 -2.858320 2.656810
c    4.674823 -2.775549 1.796881
h    5.661105 -2.595229 2.206769
c    4.479815 -2.882756 0.461196
h    5.312501 -2.790033 -0.213656
c    3.150996 -3.098760 0.013629
n    2.911836 -3.176133 -1.262706
h    1.933365 -3.216078 -1.532904
h    3.608311 -2.838961 -1.902625
n    2.116567 -3.218176 0.820976
c    2.322653 -3.078443 2.155616
o    1.340195 -3.147014 2.898627
c    5.238644 -2.742114 5.963862
h    6.210693 -3.044998 6.359597
c    4.829870 -3.569565 4.753546
h    5.695812 -3.745376 4.116126
h    4.373429 -4.513984 5.042994
o    4.235932 -2.756177 6.974268
p    3.994810 -4.009709 7.939679
o    3.489388 -3.452851 9.208571
o    5.222892 -4.835364 7.965617
o    2.817012 -4.830697 7.245965
c    1.468112 -4.405098 7.409117
h    1.374486 -3.365528 7.105047
h    1.204385 -4.469198 8.464864
c    0.444576 -5.221874 6.617745
h    -0.542848 -4.798986 6.800741
o    0.724259 -5.146156 5.227554
c    0.640071 -6.452926 4.697611
h    -0.406710 -6.694997 4.492247
n    1.428866 -6.531228 3.452188
c    2.790403 -6.445380 3.289547
h    3.465449 -6.367980 4.131511
n    3.187373 -6.437295 2.043769
c    1.983040 -6.540021 1.328495
c    1.718820 -6.576383 -0.083177
o    2.520378 -6.549430 -1.019438
n    0.377611 -6.664178 -0.392936
h    0.120611 -6.657733 -1.368260
c    -0.605248 -6.765930 0.531237
n    -1.830854 -6.867898 0.086785
h    -2.029421 -6.755769 -0.906838
h    -2.570897 -6.902377 0.767703
n    -0.414835 -6.780705 1.847832
c    0.906864 -6.633613 2.184959
c    0.435540 -6.709211 7.006587
h    0.980927 -6.875687 7.938956
c    1.157722 -7.342281 5.824990
h    2.235924 -7.234569 5.948458
h    0.879455 -8.386425 5.681453
o    -0.888000 -7.221626 7.094989
h    -0.834144 -8.093980 7.542781
na   2.441529 -3.327335 11.206658
na   0.063382 11.711344 4.292703
na   -0.408584 4.840671 8.958605
na   -5.512497 2.877766 -5.300052
na   -1.945000 -18.145000 -8.028000
na   -7.551587 10.452515 -5.195843
na   -15.040000 14.379000 -2.083000
na   1.572000 15.405000 -14.052000
na   -10.689000 -9.705000 4.539000
o    -8.067524 14.249932 0.833993
h    -8.179073 14.916549 0.117974
h    -7.176270 14.516579 1.163194
o    -15.059000 42.370000 -0.922000
h    -14.316000 42.729000 -0.436000
h    -15.827000 42.763000 -0.508000
o    23.697000 16.384000 -5.535000
h    22.767000 16.232000 -5.373000
h    24.133000 16.079000 -4.741000
o    -6.648000 9.893000 -15.564000
h    -7.323000 10.565000 -15.461000
h    -6.055000 10.035000 -14.826000
o    10.705000 36.429000 14.817000
h    10.484000 35.514000 14.994000
h    10.307000 36.916000 15.539000
o    -11.983635 -1.879711 8.415009
h    -12.369345 -1.821138 7.505193
h    -11.577620 -0.978396 8.458585
o    -15.165000 10.509000 -22.379000
h    -15.232000 10.231000 -23.292000
h    -14.674000 9.808000 -21.951000
o    -0.915000 -6.963000 22.064000
h    -0.060000 -6.575000 21.877000
h    -0.881000 -7.179000 22.997000
o    -16.050000 25.755000 11.294000
h    -16.889000 25.980000 10.892000
h    -16.275000 25.504000 12.189000
o    -15.616000 -1.014000 -13.830000
h    -14.879000 -1.079000 -13.223000
h    -16.158000 -0.311000 -13.472000
o    -19.683000 1.879000 15.681000
h    -20.304000 2.455000 15.236000
h    -18.867000 2.379000 15.704000
o    -20.434000 20.757000 -0.491000
h    -19.708000 21.190000 -0.042000
h    -20.076000 19.912000 -0.765000
o    14.996000 33.540000 -12.358000
h    15.533000 33.836000 -13.094000
h    15.401000 33.944000 -11.590000
o    -5.980000 5.363000 -14.509000
h    -5.675000 5.018000 -15.349000
h    -6.086000 6.302000 -14.659000
o    -18.908000 20.155000 7.360000
h    -18.616000 19.986000 6.465000
h    -19.763000 20.573000 7.258000
o    13.596000 18.878000 -8.360000
h    13.168000 18.631000 -9.180000
h    13.234000 18.277000 -7.709000
o    11.874000 30.325000 -6.694000
h    12.233000 29.799000 -7.407000
h    10.964000 30.481000 -6.946000
o    4.883000 19.192000 3.406000
h    5.720000 18.745000 3.527000
h    4.461000 18.723000 2.687000
o    -20.092000 20.067000 -12.440000
h    -20.515000 20.132000 -13.297000
h    -19.715000 19.188000 -12.425000
o    -6.996000 6.464000 16.584000
h    -7.699000 6.156000 17.154000
h    -6.713000 5.682000 16.110000
o    14.097000 2.123000 10.333000
h    14.874000 1.750000 9.916000
h    13.638000 2.573000 9.624000
o    -21.455000 14.179000 -5.913000
h    -22.216000 13.645000 -6.142000
h    -20.836000 14.034000 -6.629000
o    0.228000 -11.510000 15.952000
h    0.113000 -10.563000 15.883000
h    0.382000 -11.664000 16.884000
o    16.570000 29.190000 -6.180000
h    17.271000 29.670000 -5.740000
h    16.968000 28.877000 -6.993000
o    -8.382000 44.746000 -2.332000
h    -8.535000 43.819000 -2.146000
h    -8.939000 45.211000 -1.710000
o    -0.856000 -4.623000 -18.101000
h    -0.437000 -3.905000 -17.625000
h    -1.740000 -4.302000 -18.286000
o    -24.559000 27.018000 3.118000
h    -24.881000 27.525000 3.863000
h    -23.984000 26.359000 3.506000
o    13.384000 12.939000 16.351000
h    13.794000 13.795000 16.474000
h    13.479000 12.503000 17.199000
o    6.243181 12.827050 9.634219
h    6.535906 12.022934 10.107892
h    5.784588 12.422739 8.865953
o    4.497000 28.633000 -14.707000
h    4.069000 29.449000 -14.964000
h    4.093000 28.406000 -13.868000
o    -17.945000 -4.324000 -2.369000
h    -18.843000 -4.617000 -2.207000
h    -17.406000 -4.895000 -1.824000
o    -1.744000 13.824000 16.745000
h    -1.328000 14.642000 16.472000
h    -2.536000 13.768000 16.211000
o    2.403000 5.218000 -27.948000
h    2.356000 4.262000 -27.978000
h    1.635000 5.479000 -27.440000
o    15.813000 2.921000 -17.633000
h    16.092000 2.762000 -16.730000
h    16.230000 3.749000 -17.868000
o    -18.119000 32.917000 0.720000
h    -18.989000 32.799000 1.103000
h    -18.290000 33.174000 -0.186000
o    -17.307000 39.396000 -7.689000
h    -16.597000 39.164000 -8.287000
h    -17.435000 40.335000 -7.824000