9238
Energy = 0.00 kcal/mol
h    -2.420232 -6.795654 -9.009269
o    -3.295581 -6.356014 -9.071679
c    -4.318609 -7.244312 -8.625476
h    -3.995984 -8.276316 -8.774882
h    -5.213006 -7.088100 -9.230922
c    -4.705835 -7.053279 -7.146023
h    -5.520832 -7.739107 -6.910543
o    -3.587826 -7.367869 -6.320017
c    -3.467052 -6.358890 -5.328289
h    -4.124587 -6.585139 -4.480710
n    -2.045425 -6.254258 -4.899403
c    -1.064312 -6.047887 -5.835878
h    -1.339348 -5.953050 -6.878695
c    0.232544 -5.968077 -5.459376
h    1.003586 -5.813458 -6.194198
c    0.515390 -6.076983 -4.078020
n    1.745591 -5.947953 -3.674961
h    1.901759 -5.945307 -2.674694
h    2.410844 -5.535580 -4.323515
n    -0.397756 -6.320310 -3.160599
c    -1.695865 -6.409815 -3.548549
o    -2.536639 -6.643675 -2.675270
c    -5.173612 -5.629366 -6.791318
h    -5.357410 -5.043693 -7.691919
c    -3.972191 -5.094075 -6.025305
h    -3.238704 -4.698324 -6.727344
h    -4.259924 -4.325347 -5.314913
o    -6.347892 -5.680080 -5.990175
p    -7.262638 -4.386690 -5.707458
o    -8.675888 -4.761568 -5.938041
o    -6.716578 -3.228028 -6.455474
o    -7.065217 -4.075709 -4.141453
c    -7.719510 -4.870355 -3.155616
h    -7.317877 -5.883568 -3.202100
h    -8.779962 -4.923566 -3.406559
c    -7.627499 -4.379603 -1.694698
h    -8.286183 -5.026913 -1.119683
o    -6.312952 -4.511139 -1.152803
c    -5.758904 -3.221616 -0.916371
h    -5.708756 -3.023359 0.158474
n    -4.396757 -3.194008 -1.501080
c    -4.058007 -3.148044 -2.830447
h    -4.808218 -3.102175 -3.609595
n    -2.774901 -3.179603 -3.068212
c    -2.212912 -3.247519 -1.784574
c    -0.839300 -3.279393 -1.355838
o    0.191193 -3.275136 -2.030213
n    -0.690012 -3.299300 0.010276
h    0.252632 -3.259713 0.368397
c    -1.722173 -3.287817 0.881823
n    -1.393201 -3.228055 2.140192
h    -0.412040 -3.235129 2.403209
h    -2.104660 -3.101956 2.845271
n    -3.014713 -3.277118 0.546062
c    -3.198423 -3.251865 -0.815956
c    -8.069876 -2.933548 -1.434594
h    -8.775857 -2.580039 -2.190039
c    -6.728012 -2.219095 -1.554816
h    -6.505061 -2.051349 -2.607286
h    -6.731581 -1.265710 -1.035180
o    -8.659940 -2.893565 -0.136018
p    -9.065028 -1.544359 0.627113
o    -10.157775 -1.883427 1.569250
o    -9.260407 -0.440074 -0.328454
o    -7.758134 -1.232504 1.482590
c    -7.393367 -2.041198 2.591590
h    -7.110206 -3.036316 2.245713
h    -8.244972 -2.140258 3.266583
c    -6.229709 -1.429241 3.379231
h    -6.045506 -2.049730 4.256620
o    -5.057971 -1.386406 2.570319
c    -4.538493 -0.086972 2.591395
h    -3.878756 0.030707 3.475626
n    -3.786040 0.131452 1.322307
c    -4.455108 0.131432 0.114412
h    -5.540281 0.133774 0.155948
c    -3.806323 0.125707 -1.071966
h    -4.355733 0.157076 -2.007960
c    -2.364901 0.068079 -1.087303
n    -1.588165 -0.008598 -2.124030
h    -0.053570 -0.073267 -2.131167
h    -2.111029 -0.001236 -2.996975
n    -1.763650 0.091037 0.163677
c    -2.400493 0.107814 1.372870
o    -1.755785 0.101144 2.429804
c    -6.518415 0.009921 3.832770
h    -7.589208 0.221983 3.771044
c    -5.745759 0.821914 2.796832
h    -6.356766 0.934527 1.902836
h    -5.454277 1.805155 3.161310
o    -6.032897 0.224098 5.152992
p    -6.427325 1.551363 5.962790
o    -6.230889 1.253274 7.399707
o    -7.752797 1.997083 5.493519
o    -5.320667 2.603741 5.513205
c    -3.996486 2.493658 6.000574
h    -3.674454 1.457901 5.896619
h    -3.987280 2.753072 7.060120
c    -2.974103 3.371269 5.271917
h    -2.023180 3.247692 5.781450
o    -2.823730 2.949018 3.917011
c    -2.861983 4.113192 3.115107
h    -1.885804 4.602312 3.146676
n    -3.157111 3.814234 1.698383
c    -4.355604 3.798071 1.028479
h    -5.307951 3.934070 1.530692
n    -4.239193 3.620476 -0.263502
c    -2.854726 3.501065 -0.464424
c    -2.062396 3.313805 -1.656271
o    -2.418989 3.226820 -2.834852
n    -0.709754 3.213503 -1.401725
h    -0.087974 3.132635 -2.192716
c    -0.165265 3.287643 -0.165539
n    1.131064 3.205437 -0.089585
h    1.696325 3.177208 -0.936372
h    1.569794 3.343047 0.806752
n    -0.845263 3.486118 0.959509
c    -2.194008 3.583214 0.743113
c    -3.310475 4.871188 5.253243
h    -4.050110 5.141363 6.010086
c    -3.863742 5.008894 3.840853
h    -4.877826 4.609957 3.780787
h    -3.817183 6.038882 3.498682
o    -2.112660 5.640341 5.341953
p    -1.882894 6.775910 6.430958
o    -1.884999 6.176524 7.789119
o    -2.776390 7.914826 6.137122
o    -0.403747 7.238737 6.080281
c    0.721291 6.439535 6.408956
h    0.420254 5.397476 6.464755
h    1.111710 6.746243 7.379616
c    1.839512 6.522594 5.365586
h    2.672553 5.916410 5.725406
o    1.378420 5.999308 4.120947
c    1.516623 6.998052 3.120182
h    2.461093 6.858110 2.584752
n    0.387002 6.929152 2.167262
c    -0.949491 7.151987 2.398734
h    -1.341439 7.338403 3.392179
n    -1.694885 7.125787 1.323438
c    -0.765334 6.851399 0.303760
c    -0.824260 6.690410 -1.102723
n    -1.896128 6.802743 -1.863541
h    -1.789478 6.661011 -2.856503
h    -2.779985 7.121294 -1.482537
n    0.265810 6.392325 -1.806349
c    1.417082 6.255274 -1.164903
h    2.276292 6.013204 -1.776823
n    1.641333 6.384962 0.140386
c    0.495415 6.691640 0.817969
c    2.342007 7.947397 5.109373
h    2.103589 8.600500 5.952970
c    1.570227 8.335272 3.857510
h    0.572900 8.679758 4.128537
h    2.097117 9.094331 3.280162
o    3.739278 7.897156 4.869792
p    4.668124 9.195651 4.950748
o    5.940902 8.719057 5.536819
o    3.937171 10.279938 5.634467
o    4.862109 9.606920 3.417313
c    5.674135 8.821142 2.555449
h    5.556563 7.768542 2.804467
h    6.717344 9.091734 2.717818
c    5.349607 8.977892 1.063310
h    6.022389 8.331926 0.495892
o    4.009163 8.646854 0.743521
c    3.783105 9.129941 -0.574662
h    4.002155 8.339823 -1.300243
n    2.386625 9.568414 -0.767470
c    1.450557 9.930171 0.169077
h    1.680528 9.979746 1.224961
n    0.266680 10.187839 -0.326794
c    0.459049 10.004931 -1.707880
c    -0.358784 10.088455 -2.861347
n    -1.644426 10.378762 -2.877928
h    -2.127904 10.352212 -3.765851
h    -2.110032 10.617253 -2.016372
n    0.147120 9.890911 -4.075537
c    1.434814 9.611694 -4.181071
h    1.800423 9.457338 -5.186197
n    2.326459 9.478887 -3.208002
c    1.759686 9.677238 -1.983443
c    5.492101 10.397203 0.535179
h    4.961756 11.082322 1.191771
c    4.763770 10.283604 -0.797127
h    4.261641 11.218611 -1.040470
h    5.453266 10.017132 -1.595829
o    6.857682 10.725031 0.376947
p    7.358377 12.220541 0.165074
o    8.828816 12.163192 0.308689
o    6.581455 13.106483 1.066966
o    6.987310 12.558110 -1.360869
c    7.597069 11.832911 -2.433692
h    7.458508 10.766126 -2.260322
h    8.671222 12.015557 -2.431380
c    7.064752 12.136040 -3.848277
h    7.497490 11.395909 -4.520640
o    5.645761 12.014674 -3.879384
c    5.102563 13.187727 -4.466270
h    5.072899 13.066257 -5.554295
n    3.740875 13.430992 -3.921897
c    3.535136 13.503391 -2.559854
h    4.393864 13.459480 -1.900585
c    2.277647 13.571774 -2.047353
c    2.094531 13.615533 -0.541562
h    1.534099 14.511884 -0.280360
h    1.517439 12.752151 -0.215896
h    3.054129 13.628805 -0.023517
c    1.111639 13.585726 -2.932193
o    -0.069205 13.573105 -2.587465
n    1.407483 13.576778 -4.275684
h    0.638220 13.617625 -4.930271
c    2.665688 13.480008 -4.817200
o    2.788284 13.403824 -6.036357
c    7.399659 13.525045 -4.413263
h    8.250584 13.964617 -3.885016
c    6.109862 14.286882 -4.143461
h    6.064560 14.583097 -3.096545
h    6.000139 15.146996 -4.803922
o    7.651680 13.415901 -5.817905
p    8.367000 14.596000 -6.645000
o    9.296000 13.932000 -7.610000
o    8.963000 15.513000 -5.684000
o    7.204000 15.468000 -7.362000
c    6.502000 14.924000 -8.466000
h    6.119000 13.939000 -8.205000
h    7.182000 14.821000 -9.313000
c    5.324000 15.755000 -8.968000
h    4.914000 15.122000 -9.756000
o    4.334000 15.884000 -7.966000
c    3.812000 17.180000 -8.007000
h    3.029000 17.242000 -8.762000
n    3.187000 17.381000 -6.655000
c    4.049000 17.469000 -5.566000
h    5.126000 17.552000 -5.615000
c    3.561000 17.458000 -4.297000
c    4.607000 17.524000 -3.154000
h    4.295000 18.285000 -2.438000
h    4.488000 16.573000 -2.633000
h    5.640000 17.525000 -3.501000
c    2.138000 17.224000 -4.060000
o    1.578000 17.155000 -2.937000
n    1.350000 17.217000 -5.211000
h    0.358000 17.080000 -5.095000
c    1.767000 17.270000 -6.480000
o    1.052000 17.250000 -7.447000
c    5.785000 17.132000 -9.378000
h    6.854000 17.278000 -9.225000
c    5.013000 18.035000 -8.389000
h    5.613000 18.143000 -7.486000
h    4.721000 18.965000 -8.880000
o    5.478000 17.361000 -10.720000
p    5.845000 18.675000 -11.577000
o    5.806000 18.284000 -13.009000
o    7.006000 19.283000 -10.950000
o    4.493000 19.468000 -11.255000
c    3.236000 18.951000 -11.684000
h    3.130000 17.928000 -11.321000
h    3.280000 18.946000 -12.773000
c    2.108000 19.869000 -11.295000
h    1.205000 19.578000 -11.834000
o    1.885000 19.775000 -9.914000
c    1.710000 21.038000 -9.445000
h    0.696000 21.307000 -9.742000
n    1.937000 21.168000 -7.992000
c    3.195000 21.060000 -7.476000
h    4.119000 21.026000 -8.033000
c    3.374000 21.010000 -6.122000
h    4.371000 20.895000 -5.725000
c    2.242000 21.124000 -5.343000
n    2.358000 21.288000 -4.109000
h    1.499000 21.330000 -3.578000
h    3.305000 21.307000 -3.758000
n    0.977000 21.164000 -5.818000
c    0.819000 21.090000 -7.188000
o    -0.341000 20.959000 -7.593000
c    2.391000 21.334000 -11.608000
h    3.262000 21.327000 -12.263000
c    2.600000 21.984000 -10.215000
h    3.658000 21.914000 -9.964000
h    2.158000 22.980000 -10.192000
o    1.211000 21.877000 -12.207000
p    1.227000 22.788000 -13.574000
o    1.541000 21.829000 -14.702000
o    2.133000 23.959000 -13.373000
o    -0.339000 23.301000 -13.628000
c    -1.340000 22.364000 -13.886000
h    -1.005000 21.353000 -13.658000
h    -1.591000 22.539000 -14.932000
c    -2.579000 22.608000 -13.020000
h    -3.365000 21.900000 -13.286000
o    -2.192000 22.343000 -11.734000
c    -2.746000 23.268000 -10.820000
h    -3.758000 23.074000 -10.470000
n    -1.857000 23.512000 -9.677000
c    -0.588000 23.841000 -9.810000
h    0.080000 23.684000 -10.644000
n    -0.028000 24.185000 -8.655000
c    -1.087000 24.126000 -7.745000
c    -1.062000 24.405000 -6.380000
o    -0.128000 24.763000 -5.642000
n    -2.308000 24.302000 -5.804000
h    -2.542000 24.425000 -4.830000
c    -3.475000 23.937000 -6.488000
n    -4.536000 23.780000 -5.766000
h    -4.530000 24.032000 -4.788000
h    -5.318000 23.269000 -6.151000
n    -3.489000 23.536000 -7.732000
c    -2.266000 23.749000 -8.362000
c    -3.288000 23.946000 -13.104000
h    -2.813000 24.503000 -13.911000
c    -2.874000 24.520000 -11.754000
h    -1.886000 24.911000 -12.002000
h    -3.659000 25.138000 -11.320000
o    -4.691000 23.696000 -13.367000
p    -5.622000 24.834000 -14.060000
o    -7.021000 24.368000 -14.220000
o    -4.916000 25.316000 -15.263000
o    -5.596000 26.031000 -12.892000
c    -6.541000 26.091000 -11.808000
h    -6.692000 25.078000 -11.431000
h    -7.483000 26.383000 -12.273000
c    -6.137000 27.074000 -10.694000
h    -7.002000 27.088000 -10.030000
o    -4.939000 26.737000 -10.051000
c    -4.592000 27.749000 -9.185000
h    -5.169000 27.609000 -8.269000
n    -3.158000 27.693000 -8.868000
c    -2.153000 27.379000 -9.779000
h    -2.478000 27.162000 -10.785000
c    -0.855000 27.382000 -9.454000
h    -0.107000 27.186000 -10.209000
c    -0.593000 27.499000 -8.067000
n    0.603000 27.283000 -7.526000
h    0.663000 27.169000 -6.524000
h    1.459000 27.094000 -8.025000
n    -1.479000 27.690000 -7.165000
c    -2.759000 27.781000 -7.523000
o    -3.565000 28.078000 -6.658000
c    -5.936000 28.530000 -11.022000
h    -5.320000 28.658000 -11.913000
c    -5.059000 29.020000 -9.855000
h    -4.241000 29.586000 -10.300000
h    -5.598000 29.603000 -9.109000
o    -7.200000 29.198000 -11.102000
p    -7.452000 30.745000 -11.075000
o    -8.835000 30.904000 -11.494000
o    -6.448000 31.452000 -11.875000
o    -7.390000 31.233000 -9.499000
c    -8.237000 30.599000 -8.577000
h    -8.129000 29.516000 -8.521000
h    -9.237000 30.840000 -8.938000
c    -8.195000 31.179000 -7.138000
h    -9.017000 30.829000 -6.514000
o    -6.969000 30.681000 -6.566000
c    -6.205000 31.766000 -5.973000
h    -6.368000 31.925000 -4.907000
n    -4.764000 31.697000 -6.191000
c    -4.078000 31.490000 -7.338000
h    -4.618000 31.442000 -8.271000
n    -2.753000 31.352000 -7.298000
c    -2.580000 31.325000 -5.870000
c    -1.418000 31.178000 -5.021000
o    -0.288000 31.019000 -5.336000
n    -1.696000 31.123000 -3.708000
h    -0.912000 31.072000 -3.072000
c    -2.870000 31.216000 -3.158000
n    -2.891000 31.440000 -1.867000
h    -2.020000 31.253000 -1.389000
h    -3.797000 31.452000 -1.422000
n    -4.034000 31.426000 -3.875000
c    -3.788000 31.501000 -5.219000
c    -8.176000 32.766000 -7.044000
h    -8.559000 33.149000 -7.990000
c    -6.723000 33.063000 -6.728000
h    -6.133000 33.166000 -7.639000
h    -6.744000 34.036000 -6.238000
o    -9.021000 33.280000 -5.995000
h    -8.971000 34.235000 -6.084000
h    5.877000 31.177000 2.334000
o    5.238000 31.739000 1.889000
c    4.644000 32.554000 2.848000
h    4.782000 33.609000 2.616000
h    5.068000 32.553000 3.853000
c    3.141000 32.219000 3.143000
h    2.928000 32.879000 3.982000
o    2.172000 32.589000 2.187000
c    1.678000 31.430000 1.522000
h    0.622000 31.402000 1.792000
n    1.816000 31.509000 0.014000
c    3.055000 31.833000 -0.531000
h    3.866000 32.154000 0.107000
c    3.149000 31.925000 -1.873000
h    4.073000 32.132000 -2.392000
c    1.994000 31.777000 -2.638000
n    1.984000 31.781000 -3.933000
h    1.115000 31.512000 -4.374000
h    2.863000 31.547000 -4.373000
n    0.819000 31.590000 -2.113000
c    0.667000 31.447000 -0.823000
o    -0.466000 31.270000 -0.419000
c    2.933000 30.764000 3.441000
h    3.818000 30.304000 3.882000
c    2.471000 30.230000 2.115000
h    3.300000 29.969000 1.457000
h    1.835000 29.364000 2.300000
o    1.785000 30.743000 4.358000
p    1.497000 29.571000 5.324000
o    0.694000 29.943000 6.491000
o    2.720000 28.695000 5.506000
o    0.571000 28.752000 4.477000
c    -0.735000 29.155000 4.099000
h    -0.715000 30.139000 3.629000
h    -1.480000 29.175000 4.894000
c    -1.242000 28.298000 2.946000
h    -2.327000 28.344000 3.011000
o    -0.854000 28.685000 1.606000
c    -0.659000 27.528000 0.814000
h    -1.604000 27.031000 0.595000
n    0.114000 27.791000 -0.392000
c    1.503000 27.859000 -0.558000
h    2.235000 27.928000 0.233000
n    1.917000 27.883000 -1.762000
c    0.724000 27.901000 -2.484000
c    0.501000 27.887000 -3.904000
o    1.314000 27.732000 -4.809000
n    -0.825000 27.849000 -4.237000
h    -1.159000 27.899000 -5.189000
c    -1.849000 27.893000 -3.365000
n    -3.001000 27.967000 -3.834000
h    -3.151000 27.981000 -4.832000
h    -3.771000 28.041000 -3.186000
n    -1.668000 27.887000 -2.067000
c    -0.381000 27.863000 -1.684000
c    -0.782000 26.842000 3.034000
h    -0.292000 26.513000 3.950000
c    0.120000 26.647000 1.800000
h    1.148000 26.959000 1.984000
h    0.051000 25.665000 1.331000
o    -1.858000 26.006000 2.887000
p    -2.700000 25.407000 4.102000
o    -3.091000 26.477000 5.011000
o    -1.848000 24.320000 4.616000
o    -3.973000 24.843000 3.396000
c    -5.079000 25.687000 3.025000
h    -4.701000 26.643000 2.663000
h    -5.746000 25.708000 3.887000
c    -5.901000 25.191000 1.818000
h    -6.739000 25.875000 1.962000
o    -5.192000 25.383000 0.553000
c    -5.220000 24.186000 -0.195000
h    -6.101000 24.276000 -0.832000
n    -3.881000 24.093000 -0.878000
c    -2.651000 24.111000 -0.219000
h    -2.717000 24.164000 0.858000
c    -1.472000 24.191000 -0.873000
h    -0.512000 24.105000 -0.386000
c    -1.617000 24.210000 -2.279000
n    -0.574000 24.064000 -2.986000
h    -0.605000 24.115000 -3.993000
h    0.273000 24.050000 -2.434000
n    -2.751000 24.198000 -2.887000
c    -3.941000 24.144000 -2.257000
o    -4.951000 24.088000 -2.882000
c    -6.428000 23.782000 1.811000
h    -6.381000 23.434000 2.843000
c    -5.434000 23.070000 0.871000
h    -4.503000 22.887000 1.406000
h    -5.851000 22.136000 0.491000
o    -7.811000 23.788000 1.345000
p    -8.642000 22.475000 1.050000
o    -10.065000 22.936000 0.956000
o    -8.145000 21.486000 2.104000
o    -8.201000 21.948000 -0.353000
c    -8.789000 22.290000 -1.640000
h    -8.541000 23.317000 -1.903000
h    -9.868000 22.138000 -1.606000
c    -8.259000 21.328000 -2.723000
h    -8.862000 21.459000 -3.621000
o    -6.856000 21.331000 -2.875000
c    -6.267000 20.068000 -2.773000
h    -6.318000 19.508000 -3.707000
n    -4.859000 20.071000 -2.246000
c    -4.315000 19.925000 -1.014000
h    -4.954000 19.748000 -0.160000
n    -3.032000 20.240000 -0.939000
c    -2.628000 20.371000 -2.262000
c    -1.335000 20.494000 -2.920000
o    -0.174000 20.461000 -2.508000
n    -1.531000 20.875000 -4.250000
h    -0.650000 20.978000 -4.733000
c    -2.650000 20.655000 -4.940000
n    -2.699000 20.694000 -6.237000
h    -1.794000 20.829000 -6.664000
h    -3.618000 20.590000 -6.642000
n    -3.830000 20.538000 -4.456000
c    -3.816000 20.375000 -3.080000
c    -8.587000 19.869000 -2.339000
h    -9.418000 19.849000 -1.634000
c    -7.248000 19.339000 -1.815000
h    -7.260000 19.659000 -0.773000
h    -7.148000 18.255000 -1.871000
o    -8.759000 19.026000 -3.472000
p    -10.080000 18.234000 -3.745000
o    -11.159000 19.200000 -4.030000
o    -10.200000 17.299000 -2.612000
o    -9.840000 17.407000 -5.090000
c    -9.458000 18.170000 -6.254000
h    -9.212000 19.205000 -6.016000
h    -10.383000 18.208000 -6.827000
c    -8.267000 17.546000 -7.185000
h    -8.264000 18.106000 -8.119000
o    -6.971000 17.723000 -6.603000
c    -6.438000 16.441000 -6.415000
h    -5.921000 16.133000 -7.324000
n    -5.467000 16.357000 -5.286000
c    -5.666000 16.135000 -3.954000
h    -6.661000 15.981000 -3.561000
n    -4.655000 16.377000 -3.187000
c    -3.600000 16.652000 -4.103000
c    -2.211000 16.990000 -4.089000
n    -1.460000 17.199000 -3.032000
h    -0.545000 17.537000 -3.286000
h    -1.833000 17.035000 -2.108000
n    -1.555000 17.391000 -5.175000
c    -2.243000 17.225000 -6.318000
h    -1.646000 17.522000 -7.168000
n    -3.532000 16.928000 -6.554000
c    -4.142000 16.714000 -5.364000
c    -8.489000 15.998000 -7.351000
h    -9.548000 15.759000 -7.260000
c    -7.618000 15.576000 -6.192000
h    -8.162000 15.748000 -5.262000
h    -7.310000 14.532000 -6.251000
o    -8.012000 15.571000 -8.612000
p    -8.498475 14.149003 -9.195092
o    -9.631068 14.414496 -10.102040
o    -8.683063 13.196558 -8.072637
o    -7.262347 13.645348 -10.058601
c    -6.925558 14.276224 -11.281493
h    -6.952925 15.352015 -11.139337
h    -7.657488 14.010114 -12.044626
c    -5.519691 13.949299 -11.789494
h    -5.361192 14.531709 -12.694823
o    -4.560396 14.335412 -10.811241
c    -3.904674 13.190014 -10.291113
h    -2.896078 13.128382 -10.710654
n    -3.842218 13.307410 -8.810739
c    -4.874781 13.217454 -7.905142
h    -5.901471 13.061804 -8.208699
n    -4.512212 13.303254 -6.651130
c    -3.128212 13.511661 -6.745149
c    -2.086502 13.680860 -5.802948
n    -2.250448 13.662870 -4.493119
h    -1.438744 13.752427 -3.893221
h    -3.176164 13.561052 -4.113667
n    -0.822892 13.846278 -6.189286
c    -0.569892 13.869559 -7.492879
h    0.465664 14.013138 -7.773788
n    -1.434027 13.721514 -8.494197
c    -2.713095 13.540210 -8.051369
c    -5.265163 12.479494 -12.116816
h    -6.192527 11.963783 -12.375662
c    -4.707614 11.984078 -10.786646
h    -5.529442 11.745597 -10.112918
h    -4.078422 11.111850 -10.924425
o    -4.343844 12.430321 -13.202267
p    -3.828347 11.061645 -13.833645
o    -3.445761 11.337530 -15.231931
o    -4.841857 10.022811 -13.577616
o    -2.499672 10.706934 -13.014084
c    -1.348870 11.526756 -13.191401
h    -1.626844 12.571274 -13.033408
h    -1.003272 11.426290 -14.220222
c    -0.171546 11.218473 -12.262030
h    0.635154 11.911969 -12.508666
o    -0.561974 11.420951 -10.910219
c    -0.096138 10.325531 -10.150235
h    0.955330 10.486784 -9.894851
n    -0.920886 10.196456 -8.923917
c    -2.272351 9.923600 -9.001657
h    -2.715715 9.754860 -9.973199
c    -3.045496 9.883373 -7.884435
c    -4.522694 9.555315 -8.016595
h    -5.115227 10.401218 -7.672040
h    -4.787058 9.328540 -9.050016
h    -4.759567 8.695712 -7.389898
c    -2.453130 10.119001 -6.568131
o    -3.030986 10.099841 -5.482947
n    -1.106227 10.376682 -6.583569
h    -0.649282 10.475438 -5.689232
c    -0.298316 10.413584 -7.690863
o    0.907515 10.603981 -7.547297
c    0.373764 9.785653 -12.368673
h    0.011199 9.294256 -13.273682
c    -0.187845 9.139317 -11.106783
h    -1.217761 8.835688 -11.279639
h    0.410822 8.295477 -10.766435
o    1.793398 9.836659 -12.351608
p    2.707782 8.550551 -12.592479
o    3.940464 9.002782 -13.262973
o    1.891391 7.491327 -13.223980
o    3.053288 8.097114 -11.089740
c    3.780679 8.962529 -10.225652
h    3.227663 9.894488 -10.116086
h    4.748325 9.184941 -10.678535
c    4.025164 8.406226 -8.816888
h    4.679200 9.108821 -8.297774
o    2.823505 8.305607 -8.070590
c    2.986594 7.240594 -7.154628
h    3.662755 7.539012 -6.346540
n    1.670579 6.832077 -6.595066
c    0.539900 6.801780 -7.387087
h    0.644847 6.963288 -8.453226
c    -0.688890 6.607953 -6.835857
c    -1.915001 6.589892 -7.726308
h    -2.356596 5.597026 -7.691093
h    -2.653210 7.289709 -7.342712
h    -1.664077 6.843002 -8.757015
c    -0.843295 6.433031 -5.392737
o    -1.910634 6.321549 -4.783709
n    0.340021 6.387922 -4.694993
h    0.298326 6.256835 -3.694110
c    1.595293 6.561474 -5.224179
o    2.572748 6.492039 -4.488154
c    4.686830 7.020847 -8.784126
h    4.788503 6.642397 -9.803747
c    3.670989 6.180717 -8.005090
h    2.956192 5.727345 -8.693020
h    4.154466 5.427532 -7.384856
o    5.951140 7.094189 -8.123451
p    7.042430 5.935067 -8.270517
o    8.373181 6.572704 -8.197553
o    6.728722 5.183173 -9.500890
o    6.855625 4.961750 -7.014335
c    7.287188 5.367046 -5.715618
h    6.943532 6.385768 -5.527253
h    8.377976 5.373584 -5.687810
c    6.769650 4.491141 -4.560822
h    7.235994 4.844769 -3.640492
o    5.356517 4.633376 -4.442318
c    4.802864 3.347175 -4.239836
h    4.947534 3.056248 -3.193472
n    3.345041 3.301991 -4.556514
c    2.873604 3.234030 -5.846923
h    3.568604 3.282063 -6.674462
c    1.543504 3.097563 -6.080986
h    1.172518 3.028586 -7.090620
c    0.690115 3.026381 -4.947852
n    -0.592395 2.875896 -5.093298
h    -1.150547 2.847697 -4.252064
h    -0.991457 2.759427 -6.013685
n    1.105196 3.144511 -3.706731
c    2.435426 3.292718 -3.488929
o    2.803290 3.405241 -2.318781
c    7.062101 2.985599 -4.691433
h    7.810249 2.783455 -5.455671
c    5.695840 2.449115 -5.095501
h    5.542375 2.608099 -6.161799
h    5.573332 1.400801 -4.832706
o    7.421997 2.420107 -3.438585
p    8.711626 1.501062 -3.267353
o    9.917687 2.323797 -3.510435
o    8.487393 0.252728 -4.034707
o    8.634684 1.121951 -1.721939
c    8.941807 2.063194 -0.703541
h    8.607135 3.056497 -1.009909
h    10.022216 2.096675 -0.561810
c    8.259773 1.728484 0.634877
h    8.681871 2.388736 1.393662
o    6.857811 1.971683 0.529502
c    6.145218 0.775484 0.719919
h    5.772185 0.737172 1.762429
n    5.022136 0.682486 -0.250819
c    5.132307 0.598661 -1.632322
h    6.079287 0.744390 -2.135274
n    3.985201 0.360228 -2.215555
c    3.068060 0.272367 -1.178320
c    1.673238 0.067814 -1.137052
o    0.990243 -0.069985 -2.251341
n    1.063960 0.018871 0.057815
h    -0.715476 0.056420 0.182219
c    1.790872 0.213942 1.194333
n    1.121361 0.152663 2.366697
h    0.107694 0.060476 2.391661
h    1.631477 0.278130 3.230967
n    3.115312 0.460318 1.256179
c    3.698318 0.465034 0.050875
c    8.422328 0.269276 1.091629
h    9.311801 -0.179265 0.649598
c    7.153923 -0.353299 0.525627
h    7.287228 -0.598374 -0.527056
h    6.869729 -1.247720 1.068021
o    8.470523 0.183401 2.513220
p    8.743807 -1.200931 3.287175
o    9.680915 -0.901109 4.394873
o    9.126900 -2.234458 2.305784
o    7.307394 -1.602722 3.880235
c    6.687085 -0.837973 4.910051
h    6.577940 0.191873 4.568356
h    7.337159 -0.835479 5.785116
c    5.297175 -1.326646 5.365349
h    4.958486 -0.630040 6.133114
o    4.357891 -1.316528 4.292396
c    3.826860 -2.624735 4.102282
h    2.876395 -2.723965 4.636406
n    3.625875 -2.865833 2.650664
c    4.690937 -2.796949 1.793101
h    5.679143 -2.629029 2.204388
c    4.497822 -2.903375 0.457100
h    5.334178 -2.823972 -0.214727
c    3.167596 -3.104561 0.006631
n    2.928132 -3.177425 -1.269966
h    1.950527 -3.221259 -1.543389
h    3.639453 -2.885236 -1.915710
n    2.129501 -3.203812 0.811421
c    2.333770 -3.070249 2.147066
o    1.348970 -3.126121 2.887639
c    5.243578 -2.739552 5.960555
h    6.214847 -3.040991 6.359256
c    4.837942 -3.570974 4.752204
h    5.706084 -3.750009 4.118860
h    4.379493 -4.513911 5.043434
o    4.238696 -2.753349 6.968630
p    3.998961 -4.005835 7.936283
o    3.493798 -3.447724 9.204641
o    5.227820 -4.830305 7.962678
o    2.822071 -4.829550 7.244453
c    1.472263 -4.408065 7.410889
h    1.375636 -3.367270 7.112108
h    1.209444 -4.477864 8.466525
c    0.450561 -5.223466 6.615841
h    -0.537428 -4.800714 6.796537
o    0.734750 -5.145898 5.226544
c    0.647003 -6.451495 4.694419
h    -0.400463 -6.690328 4.488279
n    1.436056 -6.528637 3.449127
c    2.797490 -6.441712 3.286533
h    3.472370 -6.367581 4.128959
n    3.194163 -6.427292 2.040551
c    1.989653 -6.528478 1.325189
c    1.725024 -6.558046 -0.086647
o    2.527278 -6.523198 -1.022729
n    0.383524 -6.647102 -0.396061
h    0.124537 -6.638625 -1.370869
c    -0.598961 -6.752527 0.528611
n    -1.825082 -6.852575 0.085648
h    -2.025931 -6.736263 -0.907090
h    -2.564188 -6.880209 0.767970
n    -0.407500 -6.772711 1.844825
c    0.914012 -6.626765 2.181768
c    0.440315 -6.711407 7.002718
h    0.985277 -6.879601 7.935017
c    1.162026 -7.343978 5.820528
h    2.240345 -7.238735 5.944889
h    0.881549 -8.387301 5.675071
o    -0.883700 -7.222632 7.090357
h    -0.831395 -8.094813 7.538583
na   2.436934 -3.323345 11.198338
na   0.060402 11.710433 4.295010
na   -0.407602 4.840727 8.964161
na   -5.527181 2.878813 -5.311788
na   -1.945000 -18.145000 -8.028000
na   -7.551490 10.452472 -5.195225
na   -15.040000 14.379000 -2.083000
na   1.572000 15.405000 -14.052000
na   -10.689000 -9.705000 4.539000
o    -8.068979 14.251644 0.835728
h    -8.179922 14.917445 0.118882
h    -7.177310 14.517533 1.164333
o    -15.059000 42.370000 -0.922000
h    -14.316000 42.729000 -0.436000
h    -15.827000 42.763000 -0.508000
o    23.697000 16.384000 -5.535000
h    22.767000 16.232000 -5.373000
h    24.133000 16.079000 -4.741000
o    -6.648000 9.893000 -15.564000
h    -7.323000 10.565000 -15.461000
h    -6.055000 10.035000 -14.826000
o    10.705000 36.429000 14.817000
h    10.484000 35.514000 14.994000
h    10.307000 36.916000 15.539000
o    -11.980006 -1.882097 8.418473
h    -12.364333 -1.825033 7.507853
h    -11.575009 -0.980289 8.461435
o    -15.165000 10.509000 -22.379000
h    -15.232000 10.231000 -23.292000
h    -14.674000 9.808000 -21.951000
o    -0.915000 -6.963000 22.064000
h    -0.060000 -6.575000 21.877000
h    -0.881000 -7.179000 22.997000
o    -16.050000 25.755000 11.294000
h    -16.889000 25.980000 10.892000
h    -16.275000 25.504000 12.189000
o    -15.616000 -1.014000 -13.830000
h    -14.879000 -1.079000 -13.223000
h    -16.158000 -0.311000 -13.472000
o    -19.683000 1.879000 15.681000
h    -20.304000 2.455000 15.236000
h    -18.867000 2.379000 15.704000
o    -20.434000 20.757000 -0.491000
h    -19.708000 21.190000 -0.042000
h    -20.076000 19.912000 -0.765000
o    14.996000 33.540000 -12.358000
h    15.533000 33.836000 -13.094000
h    15.401000 33.944000 -11.590000
o    -5.980000 5.363000 -14.509000
h    -5.675000 5.018000 -15.349000
h    -6.086000 6.302000 -14.659000
o    -18.908000 20.155000 7.360000
h    -18.616000 19.986000 6.465000
h    -19.763000 20.573000 7.258000
o    13.596000 18.878000 -8.360000
h    13.168000 18.631000 -9.180000
h    13.234000 18.277000 -7.709000
o    11.874000 30.325000 -6.694000
h    12.233000 29.799000 -7.407000
h    10.964000 30.481000 -6.946000
o    4.883000 19.192000 3.406000
h    5.720000 18.745000 3.527000
h    4.461000 18.723000 2.687000
o    -20.092000 20.067000 -12.440000
h    -20.515000 20.132000 -13.297000
h    -19.715000 19.188000 -12.425000
o    -6.996000 6.464000 16.584000
h    -7.699000 6.156000 17.154000
h    -6.713000 5.682000 16.110000
o    14.097000 2.123000 10.333000
h    14.874000 1.750000 9.916000
h    13.638000 2.573000 9.624000
o    -21.455000 14.179000 -5.913000
h    -22.216000 13.645000 -6.142000
h    -20.836000 14.034000 -6.629000
o    0.228000 -11.510000 15.952000
h    0.113000 -10.563000 15.883000
h    0.382000 -11.664000 16.884000
o    16.570000 29.190000 -6.180000
h    17.271000 29.670000 -5.740000
h    16.968000 28.877000 -6.993000
o    -8.382000 44.746000 -2.332000
h    -8.535000 43.819000 -2.146000
h    -8.939000 45.211000 -1.710000
o    -0.856000 -4.623000 -18.101000
h    -0.437000 -3.905000 -17.625000
h    -1.740000 -4.302000 -18.286000
o    -24.559000 27.018000 3.118000
h    -24.881000 27.525000 3.863000
h    -23.984000 26.359000 3.506000
o    13.384000 12.939000 16.351000
h    13.794000 13.795000 16.474000
h    13.479000 12.503000 17.199000
o    6.242134 12.823086 9.632373
h    6.534162 12.019616 10.107620
h    5.783186 12.417767 8.864926
o    4.497000 28.633000 -14.707000
h    4.069000 29.449000 -14.964000
h    4.093000 28.406000 -13.868000
o    -17.945000 -4.324000 -2.369000
h    -18.843000 -4.617000 -2.207000
h    -17.406000 -4.895000 -1.824000
o    -1.744000 13.824000 16.745000
h    -1.328000 14.642000 16.472000
h    -2.536000 13.768000 16.211000
o    2.403000 5.218000 -27.948000
h    2.356000 4.262000 -27.978000
h    1.635000 5.479000 -27.440000
o    15.813000 2.921000 -17.633000
h    16.092000 2.762000 -16.730000
h    16.230000 3.749000 -17.868000
o    -18.119000 32.917000 0.720000
h    -18.989000 32.799000 1.103000
h    -18.290000 33.174000 -0.186000
o    -17.307000 39.396000 -7.689000
h    -16.597000 39.164000 -8.287000
h    -17.435000 40.335000 -7.824000