9038
Energy = 0.00 kcal/mol
h    -1.539000 8.241000 -17.606000
o    -2.358000 8.396000 -17.086000
c    -3.502000 8.236000 -17.922000
h    -3.223000 8.427000 -18.960000
h    -4.252000 8.977000 -17.642000
c    -4.150000 6.841000 -17.830000
h    -5.036000 6.829000 -18.465000
o    -3.231000 5.864000 -18.311000
c    -3.220000 4.773000 -17.404000
h    -4.032000 4.077000 -17.647000
n    -1.894000 4.098000 -17.460000
c    -0.748000 4.825000 -17.259000
h    -0.821000 5.884000 -17.047000
c    0.461000 4.224000 -17.330000
h    1.362000 4.795000 -17.180000
c    0.485000 2.833000 -17.586000
n    1.631000 2.217000 -17.604000
h    1.620000 1.209000 -17.697000
h    2.427000 2.701000 -17.194000
n    -0.595000 2.117000 -17.832000
c    -1.804000 2.732000 -17.769000
o    -2.803000 2.045000 -18.005000
c    -4.583000 6.430000 -16.410000
h    -4.559000 7.284000 -15.733000
c    -3.507000 5.415000 -16.046000
h    -2.633000 5.934000 -15.653000
h    -3.866000 4.691000 -15.321000
o    -5.888000 5.861000 -16.436000
p    -6.746000 5.587000 -15.103000
o    -8.123000 6.083000 -15.329000
o    -6.004000 6.101000 -13.926000
o    -6.802000 3.985000 -14.967000
c    -7.648000 3.215000 -15.817000
h    -7.282000 3.299000 -16.842000
h    -8.649000 3.648000 -15.788000
c    -7.797000 1.717000 -15.476000
h    -8.585000 1.340000 -16.123000
o    -6.616000 0.968000 -15.760000
c    -6.034000 0.509000 -14.546000
h    -6.158000 -0.574000 -14.453000
n    -4.591000 0.849000 -14.570000
c    -4.016000 2.086000 -14.416000
h    -4.608000 2.973000 -14.233000
n    -2.716000 2.098000 -14.521000
c    -2.398000 0.753000 -14.764000
c    -1.130000 0.098000 -14.949000
o    0.003000 0.577000 -14.966000
n    -1.235000 -1.263000 -15.115000
h    -0.371000 -1.783000 -15.180000
c    -2.408000 -1.934000 -15.119000
n    -2.318000 -3.227000 -15.224000
h    -1.401000 -3.656000 -15.326000
h    -3.136000 -3.807000 -15.119000
n    -3.614000 -1.380000 -14.975000
c    -3.543000 -0.021000 -14.792000
c    -8.196000 1.386000 -14.031000
h    -8.725000 2.215000 -13.555000
c    -6.814000 1.191000 -13.415000
h    -6.394000 2.164000 -13.163000
h    -6.853000 0.578000 -12.519000
o    -9.016000 0.217000 -14.061000
p    -9.460000 -0.601000 -12.756000
o    -10.719000 -1.311000 -13.084000
o    -9.422000 0.263000 -11.563000
o    -8.307000 -1.691000 -12.614000
c    -8.178000 -2.754000 -13.548000
h    -7.909000 -2.355000 -14.527000
h    -9.132000 -3.276000 -13.641000
c    -7.113000 -3.766000 -13.108000
h    -7.115000 -4.594000 -13.818000
o    -5.827000 -3.147000 -13.091000
c    -5.208000 -3.407000 -11.862000
h    -4.698000 -4.390000 -11.906000
n    -4.223771 -2.312536 -11.588105
c    -4.654855 -1.021802 -11.402147
h    -5.726466 -0.871948 -11.304393
c    -3.793602 0.023389 -11.342303
h    -4.149720 1.033330 -11.165352
c    -2.387542 -0.223652 -11.518644
n    -1.456914 0.695399 -11.537292
h    -0.278137 0.483848 -11.689384
h    -1.780408 1.644476 -11.385023
n    -2.007872 -1.532847 -11.684134
c    -2.866999 -2.601310 -11.728776
o    -2.444985 -3.747779 -11.887866
c    -7.374000 -4.317000 -11.699000
h    -8.396000 -4.085000 -11.386000
c    -6.362000 -3.530000 -10.868000
h    -6.799000 -2.571000 -10.597000
h    -6.062000 -4.060000 -9.967000
o    -7.144000 -5.721000 -11.650000
p    -7.615000 -6.585000 -10.380000
o    -7.704000 -7.996000 -10.823000
o    -8.810000 -5.937000 -9.807000
o    -6.399000 -6.455000 -9.360000
c    -5.191000 -7.148000 -9.615000
h    -4.928000 -7.004000 -10.662000
h    -5.349000 -8.214000 -9.445000
c    -3.992000 -6.691000 -8.779000
h    -3.151000 -7.325000 -9.045000
o    -3.655000 -5.340000 -9.091000
c    -3.408000 -4.689000 -7.862000
h    -2.412000 -4.960000 -7.502000
n    -3.452000 -3.219000 -7.994000
c    -4.509000 -2.355000 -7.856000
h    -5.525000 -2.701000 -7.700000
n    -4.175000 -1.091000 -7.918000
c    -2.786000 -1.121000 -8.127000
c    -1.806000 -0.071000 -8.272000
o    -1.955000 1.154000 -8.227000
n    -0.532000 -0.543000 -8.514000
h    0.219000 0.131000 -8.578000
c    -0.214000 -1.855000 -8.593000
n    1.040000 -2.142000 -8.784000
h    1.744000 -1.405000 -8.800000
h    1.329000 -3.107000 -8.755000
n    -1.072000 -2.861000 -8.441000
c    -2.350000 -2.426000 -8.212000
c    -4.188000 -6.780000 -7.256000
h    -5.034000 -7.415000 -6.983000
c    -4.443000 -5.315000 -6.928000
h    -5.459000 -5.030000 -7.204000
h    -4.234000 -5.104000 -5.883000
o    -2.971000 -7.169000 -6.624000
p    -2.866000 -8.384000 -5.602000
o    -3.139000 -9.659000 -6.310000
o    -3.636000 -8.054000 -4.385000
o    -1.328000 -8.335000 -5.205000
c    -0.316000 -8.774000 -6.100000
h    -0.681000 -8.709000 -7.121000
h    -0.066000 -9.812000 -5.883000
c    0.958000 -7.925000 -6.030000
h    1.678000 -8.345000 -6.734000
o    0.659000 -6.579000 -6.400000
c    1.050000 -5.714000 -5.344000
h    2.063000 -5.340000 -5.526000
n    0.108000 -4.578000 -5.230000
c    -1.231000 -4.595000 -4.918000
h    -1.781000 -5.521000 -4.794000
n    -1.772000 -3.409000 -4.782000
c    -0.688000 -2.545000 -5.036000
c    -0.495000 -1.142000 -5.061000
n    -1.394000 -0.216000 -4.789000
h    -1.099000 0.747000 -4.839000
h    -2.305000 -0.464000 -4.423000
n    0.682000 -0.612000 -5.387000
c    1.685000 -1.427000 -5.678000
h    2.625000 -0.955000 -5.936000
n    1.672000 -2.757000 -5.684000
c    0.445000 -3.252000 -5.347000
c    1.596000 -7.889000 -4.638000
h    1.271000 -8.744000 -4.040000
c    1.072000 -6.575000 -4.082000
h    0.069000 -6.715000 -3.681000
h    1.740000 -6.168000 -3.324000
o    3.007000 -7.865000 -4.786000
p    3.999000 -8.247000 -3.591000
o    5.096000 -9.008000 -4.229000
o    3.233000 -8.885000 -2.503000
o    4.516000 -6.824000 -3.082000
c    5.454000 -6.081000 -3.849000
h    5.251000 -6.217000 -4.909000
h    6.454000 -6.467000 -3.648000
c    5.443000 -4.573000 -3.571000
h    6.180000 -4.097000 -4.222000
o    4.176000 -3.973000 -3.783000
c    4.229000 -2.691000 -3.170000
h    4.494000 -1.932000 -3.913000
n    2.930000 -2.331000 -2.568000
c    1.888000 -3.145000 -2.196000
h    1.951000 -4.223000 -2.261000
n    0.825000 -2.503000 -1.782000
c    1.225000 -1.156000 -1.861000
c    0.617000 0.095000 -1.596000
n    -0.619000 0.282000 -1.176000
h    -0.945000 1.233000 -1.072000
h    -1.186000 -0.518000 -0.941000
n    1.294000 1.231000 -1.738000
c    2.555000 1.165000 -2.130000
h    3.068000 2.111000 -2.230000
n    3.260000 0.084000 -2.433000
c    2.521000 -1.052000 -2.289000
c    5.770000 -4.205000 -2.133000
h    5.155000 -4.792000 -1.455000
c    5.333000 -2.748000 -2.112000
h    4.983000 -2.461000 -1.121000
h    6.150000 -2.097000 -2.415000
o    7.154000 -4.356000 -1.903000
p    7.782000 -4.391000 -0.444000
o    9.192000 -4.791000 -0.635000
o    6.906000 -5.224000 0.418000
o    7.722000 -2.865000 0.054000
c    8.471000 -1.850000 -0.622000
h    8.237000 -1.888000 -1.685000
h    9.536000 -2.061000 -0.528000
c    8.229000 -0.401000 -0.154000
h    8.724000 0.256000 -0.869000
o    6.834000 -0.109000 -0.142000
c    6.494000 0.422000 1.131000
h    6.646000 1.506000 1.121000
n    5.081000 0.085000 1.446000
c    4.650000 -1.225000 1.406000
h    5.378000 -2.006000 1.219000
c    3.332000 -1.530000 1.542000
c    2.897000 -2.982000 1.455000
h    2.371000 -3.248000 2.370000
h    2.210000 -3.111000 0.622000
h    3.753000 -3.646000 1.327000
c    2.340000 -0.473000 1.751000
o    1.119000 -0.616000 1.818000
n    2.861000 0.796000 1.841000
h    2.223000 1.561000 2.013000
c    4.183000 1.133000 1.680000
o    4.502000 2.317000 1.711000
c    8.763000 -0.050000 1.243000
h    9.543000 -0.753000 1.549000
c    7.509000 -0.185000 2.094000
h    7.305000 -1.236000 2.291000
h    7.584000 0.385000 3.020000
o    9.241000 1.299000 1.241000
p    10.178000 1.864000 2.420000
o    11.212000 2.724000 1.767000
o    10.661000 0.725000 3.188000
o    9.225000 2.669000 3.454000
c    8.690000 3.926000 3.078000
h    8.197000 3.838000 2.111000
h    9.499000 4.653000 2.993000
c    7.681000 4.528000 4.053000
h    7.371000 5.435000 3.534000
o    6.543000 3.697000 4.177000
c    6.131000 3.688000 5.513000
h    5.499000 4.553000 5.713000
n    5.294000 2.446000 5.644000
c    5.956000 1.225000 5.555000
h    7.028000 1.085000 5.546000
c    5.254000 0.064000 5.471000
c    6.085000 -1.238000 5.339000
h    5.708000 -1.968000 6.056000
h    5.809000 -1.629000 4.359000
h    7.160000 -1.071000 5.280000
c    3.798000 0.095000 5.344000
o    3.046000 -0.905000 5.223000
n    3.226000 1.355000 5.513000
h    2.221000 1.422000 5.455000
c    3.861000 2.524000 5.644000
o    3.328000 3.594000 5.777000
c    8.305000 4.707000 5.415000
h    9.338000 4.363000 5.451000
c    7.438000 3.772000 6.289000
h    7.877000 2.775000 6.260000
h    7.305000 4.204000 7.282000
o    8.255000 6.050000 5.792000
p    8.860000 6.690000 7.141000
o    9.045000 8.141000 6.888000
o    9.934000 5.817000 7.584000
o    7.533000 6.517000 8.019000
c    6.337000 7.202000 7.657000
h    6.096000 6.972000 6.619000
h    6.571000 8.263000 7.748000
c    5.227000 6.913000 8.633000
h    4.414000 7.623000 8.474000
o    4.759000 5.606000 8.433000
c    4.596000 5.043000 9.658000
h    3.672000 5.475000 10.042000
n    4.574000 3.567000 9.634000
c    5.711000 2.862000 9.367000
h    6.713000 3.257000 9.303000
c    5.646000 1.510000 9.178000
h    6.547000 0.966000 8.939000
c    4.406000 0.924000 9.321000
n    4.315000 -0.323000 9.360000
h    3.382000 -0.704000 9.429000
h    5.185000 -0.827000 9.262000
n    3.250000 1.597000 9.516000
c    3.330000 2.974000 9.582000
o    2.252000 3.579000 9.593000
c    5.665000 7.018000 10.089000
h    6.635000 7.515000 10.064000
c    5.673000 5.549000 10.588000
h    6.663000 5.133000 10.401000
h    5.307000 5.495000 11.613000
o    4.651000 7.745000 10.787000
p    4.972000 8.986000 11.815000
o    5.409000 10.141000 10.939000
o    5.910000 8.514000 12.877000
o    3.481000 9.247000 12.468000
c    2.475000 9.766000 11.651000
h    2.692000 9.593000 10.598000
h    2.425000 10.815000 11.943000
c    1.125000 9.099000 11.924000
h    0.349000 9.566000 11.316000
o    1.260000 7.802000 11.509000
c    0.623000 6.901000 12.392000
h    -0.447000 6.747000 12.258000
n    1.313000 5.606000 12.451000
c    2.606000 5.489000 12.676000
h    3.396000 6.212000 12.537000
n    2.978000 4.227000 12.862000
c    1.774000 3.518000 12.814000
c    1.579000 2.147000 12.964000
o    2.393000 1.229000 13.168000
n    0.248000 1.801000 12.920000
h    -0.144000 0.873000 12.973000
c    -0.805000 2.706000 12.724000
n    -1.984000 2.192000 12.597000
h    -2.132000 1.206000 12.757000
h    -2.721000 2.754000 12.195000
n    -0.629000 3.970000 12.442000
c    0.697000 4.360000 12.602000
c    0.539000 9.159000 13.322000
h    1.187000 9.812000 13.906000
c    0.751000 7.706000 13.731000
h    1.792000 7.742000 14.053000
h    -0.052000 7.346000 14.374000
o    -0.810000 9.678000 13.223000
p    -1.521000 10.393000 14.498000
o    -2.900000 10.833000 14.175000
o    -0.582000 11.403000 15.023000
o    -1.614000 9.117000 15.576000
c    -2.728000 8.206000 15.620000
h    -3.015000 7.969000 14.595000
h    -3.550000 8.789000 16.036000
c    -2.455000 6.943000 16.457000
h    -3.420000 6.435000 16.487000
o    -1.416000 6.148000 15.958000
c    -1.154000 5.134000 16.851000
h    -1.891000 4.348000 16.680000
n    0.194000 4.590000 16.639000
c    1.318000 5.347000 16.322000
h    1.160000 6.411000 16.227000
c    2.536000 4.811000 16.179000
h    3.388000 5.447000 15.987000
c    2.558000 3.396000 16.145000
n    3.622000 2.688000 15.775000
h    3.497000 1.708000 15.565000
h    4.537000 3.054000 15.557000
n    1.544000 2.640000 16.331000
c    0.356000 3.195000 16.568000
o    -0.565000 2.451000 16.855000
c    -2.096000 7.077000 17.914000
h    -1.326000 7.834000 18.067000
c    -1.404000 5.735000 18.215000
h    -0.482000 5.975000 18.744000
h    -2.022000 5.032000 18.773000
o    -3.275000 7.297000 18.696000
p    -3.416000 7.149000 20.250000
o    -4.689000 7.775000 20.570000
o    -2.239000 7.691000 20.935000
o    -3.596000 5.543000 20.585000
c    -4.635000 4.847000 19.947000
h    -4.616000 4.889000 18.858000
h    -5.536000 5.343000 20.308000
c    -4.804000 3.369000 20.387000
h    -5.746000 2.931000 20.055000
o    -3.737000 2.655000 19.731000
c    -3.012000 1.832000 20.685000
h    -3.348000 0.797000 20.760000
n    -1.564000 1.812000 20.508000
c    -0.704000 2.843000 20.347000
h    -1.074000 3.853000 20.433000
n    0.580000 2.597000 20.088000
c    0.497000 1.171000 19.916000
c    1.479000 0.160000 19.589000
o    2.632000 0.296000 19.359000
n    0.972000 -1.075000 19.439000
h    1.626000 -1.824000 19.260000
c    -0.271000 -1.427000 19.585000
n    -0.501000 -2.713000 19.691000
h    0.256000 -3.308000 19.384000
h    -1.468000 -2.999000 19.743000
n    -1.273000 -0.552000 19.963000
c    -0.790000 0.716000 20.138000
c    -4.688000 3.106000 21.950000
h    -4.870000 4.057000 22.451000
c    -3.295000 2.522000 22.087000
h    -2.549000 3.305000 22.220000
h    -3.332000 1.942000 23.009000
o    -5.664000 2.165000 22.439000
h    -5.531000 2.143000 23.390000
h    7.352000 -8.270000 18.265000
o    6.843000 -7.786000 18.920000
c    6.151000 -8.713000 19.694000
h    6.403000 -8.620000 20.749000
h    6.391000 -9.769000 19.563000
c    4.599000 -8.715000 19.468000
h    4.290000 -9.572000 20.065000
o    3.842000 -7.655000 20.009000
c    3.390000 -6.798000 18.964000
h    2.304000 -6.884000 19.006000
n    3.795000 -5.352000 19.168000
c    5.131000 -5.059000 19.429000
h    5.838000 -5.854000 19.617000
c    5.465000 -3.769000 19.635000
h    6.478000 -3.436000 19.806000
c    4.454000 -2.810000 19.661000
n    4.672000 -1.539000 19.784000
h    3.877000 -0.933000 19.635000
h    5.595000 -1.230000 19.514000
n    3.195000 -3.108000 19.532000
c    2.810000 -4.333000 19.286000
o    1.614000 -4.520000 19.174000
c    4.238000 -8.819000 18.016000
h    4.996000 -9.351000 17.441000
c    3.978000 -7.386000 17.649000
h    4.889000 -6.852000 17.377000
h    3.259000 -7.369000 16.830000
o    2.948000 -9.524000 18.014000
p    2.412000 -10.299000 16.789000
o    1.446000 -11.348000 17.122000
o    3.518000 -10.590000 15.794000
o    1.592000 -9.227000 16.136000
c    0.405000 -8.681000 16.687000
h    0.578000 -8.327000 17.704000
h    -0.464000 -9.338000 16.700000
c    0.048000 -7.376000 15.987000
h    -1.026000 -7.263000 16.124000
o    0.692000 -6.168000 16.459000
c    0.939000 -5.302000 15.367000
h    0.013000 -4.877000 14.978000
n    1.928000 -4.277000 15.669000
c    3.326000 -4.354000 15.628000
h    3.911000 -5.259000 15.559000
n    3.945000 -3.245000 15.725000
c    2.902000 -2.340000 15.916000
c    2.931000 -0.909000 16.051000
o    3.876000 -0.141000 15.908000
n    1.684000 -0.357000 16.162000
h    1.527000 0.627000 16.329000
c    0.529000 -1.045000 16.217000
n    -0.514000 -0.400000 16.436000
h    -0.486000 0.602000 16.555000
h    -1.379000 -0.914000 16.519000
n    0.479000 -2.347000 16.076000
c    1.674000 -2.935000 15.903000
c    0.379000 -7.385000 14.494000
h    0.676000 -8.330000 14.041000
c    1.467000 -6.306000 14.334000
h    2.467000 -6.691000 14.535000
h    1.411000 -5.731000 13.409000
o    -0.712000 -6.973000 13.774000
p    -1.794000 -7.960000 13.144000
o    -2.261000 -8.898000 14.157000
o    -1.126000 -8.492000 11.943000
o    -2.961000 -6.995000 12.763000
c    -3.921000 -6.536000 13.732000
h    -3.418000 -6.345000 14.680000
h    -4.726000 -7.271000 13.733000
c    -4.553000 -5.163000 13.424000
h    -5.351000 -5.236000 14.164000
o    -3.621000 -4.062000 13.667000
c    -3.603000 -3.197000 12.551000
h    -4.350000 -2.435000 12.777000
n    -2.175000 -2.742000 12.402000
c    -1.082000 -3.596000 12.250000
h    -1.332000 -4.646000 12.210000
c    0.196000 -3.160000 12.284000
h    1.047000 -3.789000 12.069000
c    0.301000 -1.760000 12.444000
n    1.439000 -1.226000 12.271000
h    1.589000 -0.239000 12.417000
h    2.173000 -1.907000 12.132000
n    -0.706000 -0.973000 12.589000
c    -1.989000 -1.386000 12.584000
o    -2.875000 -0.598000 12.675000
c    -5.170000 -4.919000 12.074000
h    -5.330000 -5.902000 11.630000
c    -4.081000 -4.089000 11.365000
h    -3.273000 -4.750000 11.052000
h    -4.490000 -3.548000 10.511000
o    -6.446000 -4.232000 12.245000
p    -7.305000 -3.665000 11.044000
o    -8.652000 -3.383000 11.637000
o    -7.072000 -4.677000 9.923000
o    -6.664000 -2.308000 10.611000
c    -6.991000 -0.984000 11.120000
h    -6.627000 -0.876000 12.141000
h    -8.067000 -0.821000 11.062000
c    -6.350000 0.090000 10.218000
h    -6.775000 1.058000 10.484000
o    -4.945000 0.004000 10.110000
c    -4.476000 -0.061000 8.795000
h    -4.402000 0.922000 8.330000
n    -3.185000 -0.813000 8.625000
c    -2.878000 -2.097000 8.319000
h    -3.667000 -2.808000 8.122000
n    -1.608000 -2.418000 8.510000
c    -0.970000 -1.203000 8.725000
c    0.423000 -0.787000 8.792000
o    1.489000 -1.381000 8.619000
n    0.492000 0.510000 9.309000
h    1.449000 0.825000 9.377000
c    -0.502000 1.396000 9.254000
n    -0.320000 2.672000 9.416000
h    0.653000 2.925000 9.508000
h    -1.159000 3.234000 9.432000
n    -1.754000 1.132000 9.199000
c    -1.993000 -0.202000 8.910000
c    -6.844000 -0.077000 8.765000
h    -7.785000 -0.627000 8.754000
c    -5.659000 -0.759000 8.072000
h    -5.831000 -1.812000 8.295000
h    -5.629000 -0.607000 6.993000
o    -6.875000 1.151000 8.048000
p    -8.181000 1.723000 7.405000
o    -9.121000 2.081000 8.485000
o    -8.565000 0.731000 6.384000
o    -7.769000 3.089000 6.686000
c    -7.135000 4.085000 7.515000
h    -6.861000 3.702000 8.498000
h    -7.940000 4.798000 7.688000
c    -5.847000 4.864000 6.876000
h    -5.640000 5.721000 7.516000
o    -4.664000 4.059000 6.883000
c    -4.266000 3.920000 5.547000
h    -3.621000 4.757000 5.278000
n    -3.516000 2.660000 5.274000
c    -3.961000 1.411000 4.949000
h    -5.018000 1.208000 4.849000
n    -3.086000 0.465000 5.029000
c    -1.870000 1.157000 5.292000
c    -0.484000 0.875000 5.502000
n    0.083000 -0.309000 5.546000
h    1.051000 -0.248000 5.823000
h    -0.457000 -1.135000 5.332000
n    0.380000 1.788000 5.941000
c    -0.108000 3.041000 5.942000
h    0.649000 3.743000 6.261000
n    -1.353000 3.519000 5.784000
c    -2.176000 2.477000 5.517000
c    -6.148000 5.228000 5.376000
h    -7.221000 5.341000 5.224000
c    -5.526000 3.990000 4.773000
h    -6.211000 3.152000 4.907000
h    -5.288000 4.107000 3.716000
o    -5.489000 6.429000 5.025000
p    -5.975000 7.234000 3.715000
o    -6.910000 8.282000 4.166000
o    -6.428000 6.268000 2.685000
o    -4.654000 7.932000 3.177000
c    -4.055000 8.998000 3.892000
h    -4.030000 8.743000 4.947000
h    -4.651000 9.903000 3.768000
c    -2.608000 9.284000 3.491000
h    -2.244000 10.081000 4.136000
o    -1.821000 8.118000 3.702000
c    -1.337000 7.624000 2.464000
h    -0.276000 7.874000 2.359000
n    -1.527000 6.150000 2.436000
c    -2.706000 5.446000 2.357000
h    -3.671000 5.935000 2.326000
n    -2.567000 4.147000 2.295000
c    -1.175000 3.984000 2.385000
c    -0.304000 2.868000 2.373000
n    -0.691000 1.612000 2.248000
h    0.013000 0.884000 2.213000
h    -1.671000 1.398000 2.193000
n    1.015000 3.019000 2.462000
c    1.495000 4.252000 2.583000
h    2.572000 4.339000 2.661000
n    0.810000 5.393000 2.605000
c    -0.536000 5.191000 2.497000
c    -2.407000 9.715000 2.041000
h    -3.312000 10.171000 1.632000
c    -2.118000 8.371000 1.380000
h    -3.056000 7.870000 1.146000
h    -1.530000 8.496000 0.477000
o    -1.326000 10.639000 2.013000
p    -0.809000 11.320000 0.670000
o    -0.178000 12.601000 1.044000
o    -1.926000 11.345000 -0.293000
o    0.329000 10.339000 0.125000
c    1.550000 10.236000 0.852000
h    1.326000 10.024000 1.900000
h    2.067000 11.195000 0.809000
c    2.514000 9.153000 0.360000
h    3.399000 9.178000 1.000000
o    1.894000 7.878000 0.467000
c    2.148000 7.169000 -0.727000
h    3.148000 6.726000 -0.678000
n    1.115000 6.119000 -0.899000
c    -0.217000 6.450000 -1.053000
h    -0.491000 7.494000 -1.100000
c    -1.175000 5.488000 -1.126000
c    -2.625000 5.901000 -1.316000
h    -3.208000 5.582000 -0.454000
h    -2.716000 6.981000 -1.432000
h    -3.026000 5.410000 -2.202000
c    -0.809000 4.074000 -1.056000
o    -1.570000 3.110000 -1.122000
n    0.534000 3.837000 -0.909000
h    0.836000 2.875000 -0.929000
c    1.524000 4.783000 -0.842000
o    2.695000 4.421000 -0.763000
c    2.967000 9.317000 -1.099000
h    2.741000 10.318000 -1.471000
c    2.144000 8.246000 -1.808000
h    1.144000 8.626000 -2.002000
h    2.612000 7.900000 -2.729000
o    4.359000 9.050000 -1.178000
p    5.205000 9.266000 -2.515000
o    6.567000 9.668000 -2.119000
o    4.431000 10.133000 -3.431000
o    5.238000 7.781000 -3.130000
c    5.878000 6.723000 -2.425000
h    5.393000 6.602000 -1.457000
h    6.923000 6.989000 -2.258000
c    5.837000 5.362000 -3.133000
h    6.446000 4.671000 -2.549000
o    4.521000 4.835000 -3.194000
c    4.437000 4.045000 -4.364000
h    4.981000 3.104000 -4.225000
n    3.013000 3.774000 -4.697000
c    2.054000 4.757000 -4.557000
h    2.375000 5.764000 -4.318000
c    0.733000 4.462000 -4.682000
c    -0.299000 5.560000 -4.521000
h    -0.810000 5.699000 -5.470000
h    -1.042000 5.257000 -3.788000
h    0.164000 6.499000 -4.213000
c    0.294000 3.094000 -4.957000
o    -0.876000 2.704000 -5.018000
n    1.316000 2.201000 -5.170000
h    1.080000 1.241000 -5.378000
c    2.659000 2.474000 -5.074000
o    3.468000 1.584000 -5.302000
c    6.376000 5.382000 -4.571000
h    6.635000 6.405000 -4.849000
c    5.175000 4.896000 -5.387000
h    4.563000 5.746000 -5.689000
h    5.481000 4.304000 -6.248000
o    7.499000 4.508000 -4.689000
p    8.503000 4.598000 -5.930000
o    9.848000 4.242000 -5.434000
o    8.341000 5.935000 -6.534000
o    8.017000 3.498000 -6.986000
c    8.248000 2.110000 -6.742000
h    7.965000 1.877000 -5.714000
h    9.314000 1.902000 -6.848000
c    7.466000 1.152000 -7.659000
h    7.793000 0.137000 -7.433000
o    6.067000 1.256000 -7.396000
c    5.389000 1.290000 -8.638000
h    5.322000 0.271000 -9.037000
n    4.013000 1.855000 -8.519000
c    3.780000 3.208000 -8.431000
h    4.616000 3.892000 -8.374000
c    2.508000 3.684000 -8.429000
h    2.325000 4.744000 -8.378000
c    1.461000 2.728000 -8.522000
n    0.218000 3.106000 -8.547000
h    -0.475000 2.375000 -8.605000
h    -0.014000 4.088000 -8.569000
n    1.648000 1.429000 -8.542000
c    2.925000 0.969000 -8.537000
o    3.078000 -0.252000 -8.555000
c    7.658000 1.385000 -9.168000
h    8.515000 2.025000 -9.372000
c    6.350000 2.071000 -9.535000
h    6.406000 3.125000 -9.266000
h    6.104000 1.946000 -10.587000
o    7.739000 0.155000 -9.874000
p    8.893000 -0.129000 -10.935000
o    10.190000 -0.177000 -10.223000
o    8.695000 0.795000 -12.078000
o    8.506000 -1.590000 -11.442000
c    8.723000 -2.744000 -10.643000
h    8.552000 -2.500000 -9.593000
h    9.761000 -3.062000 -10.753000
c    7.784000 -3.907000 -11.016000
h    8.117000 -4.785000 -10.459000
o    6.442000 -3.580000 -10.640000
c    5.615000 -3.511000 -11.777000
h    5.059000 -4.465000 -11.869000
n    4.684640 -2.350210 -11.685038
c    5.034569 -1.007417 -11.659635
h    6.066027 -0.690941 -11.575506
n    3.992520 -0.215753 -11.717417
c    2.895659 -1.064055 -11.792104
c    1.496590 -0.825439 -11.851438
o    0.994672 0.361541 -11.818678
n    0.686090 -1.919339 -11.943915
h    -0.939498 -1.737941 -11.804149
c    1.222838 -3.171310 -11.924441
n    0.363201 -4.215046 -12.013433
h    -0.639415 -4.070364 -12.040871
h    0.732957 -5.156462 -12.024730
n    2.527779 -3.478902 -11.824788
c    3.313443 -2.392735 -11.777033
c    7.745000 -4.251000 -12.514000
h    8.670000 -3.945000 -13.006000
c    6.564000 -3.403000 -12.971000
h    6.880000 -2.376000 -13.144000
h    6.122000 -3.799000 -13.878000
o    7.511000 -5.644000 -12.711000
p    7.524000 -6.330000 -14.168000
o    8.264000 -7.607000 -14.041000
o    7.993000 -5.341000 -15.159000
o    5.972000 -6.625000 -14.469000
c    5.241000 -7.599000 -13.728000
h    5.296000 -7.348000 -12.668000
h    5.714000 -8.572000 -13.866000
c    3.748000 -7.749000 -14.093000
h    3.332000 -8.489000 -13.409000
o    3.043000 -6.520000 -13.923000
c    2.465000 -6.121000 -15.162000
h    1.423000 -6.452000 -15.206000
n    2.535000 -4.643000 -15.286000
c    3.749000 -4.009000 -15.273000
h    4.652000 -4.608000 -15.249000
c    3.808000 -2.655000 -15.251000
h    4.763000 -2.161000 -15.215000
c    2.578000 -1.949000 -15.258000
n    2.583000 -0.649000 -15.197000
h    1.679000 -0.198000 -15.098000
h    3.436000 -0.181000 -14.942000
n    1.398000 -2.533000 -15.314000
c    1.353000 -3.890000 -15.315000
o    0.241000 -4.425000 -15.341000
c    3.443000 -8.210000 -15.526000
h    4.278000 -8.777000 -15.945000
c    3.243000 -6.879000 -16.238000
h    4.209000 -6.423000 -16.451000
h    2.665000 -6.990000 -17.154000
o    2.244000 -8.983000 -15.506000
p    1.700000 -9.770000 -16.793000
o    0.948000 -10.937000 -16.285000
o    2.830000 -9.995000 -17.722000
o    0.660000 -8.767000 -17.468000
c    -0.677000 -8.695000 -16.984000
h    -0.670000 -8.460000 -15.924000
h    -1.148000 -9.670000 -17.108000
c    -1.551000 -7.660000 -17.694000
h    -2.542000 -7.689000 -17.242000
o    -1.009000 -6.357000 -17.527000
c    -1.001000 -5.727000 -18.792000
h    -1.991000 -5.307000 -18.989000
n    0.010000 -4.651000 -18.804000
c    1.380000 -4.749000 -18.810000
h    1.891000 -5.702000 -18.874000
n    2.004000 -3.605000 -18.703000
c    0.955000 -2.676000 -18.634000
c    0.959000 -1.245000 -18.499000
o    1.917000 -0.472000 -18.439000
n    -0.302000 -0.691000 -18.442000
h    -0.367000 0.303000 -18.288000
c    -1.444000 -1.406000 -18.556000
n    -2.569000 -0.741000 -18.510000
h    -2.577000 0.245000 -18.249000
h    -3.417000 -1.284000 -18.518000
n    -1.509000 -2.721000 -18.734000
c    -0.268000 -3.307000 -18.731000
c    -1.676000 -7.919000 -19.205000
h    -1.342000 -8.928000 -19.459000
c    -0.733000 -6.866000 -19.772000
h    0.299000 -7.213000 -19.702000
h    -0.988000 -6.591000 -20.796000
o    -3.001000 -7.688000 -19.670000
h    -3.066000 -8.064000 -20.575000
na   -0.259000 -12.829000 -16.679000
na   -0.142000 -7.114000 -0.655000
na   -1.985000 -10.909000 -7.889000
na   -4.559000 4.073000 -8.116000
na   -2.060000 8.398000 -29.009000
na   -6.007000 3.630000 -0.414000
na   -13.620000 1.330000 3.871000
na   4.863000 10.176000 4.505000
na   -12.241000 -3.349000 -21.010000
o    -7.269000 -2.707000 2.878000
h    -7.200000 -2.059000 3.616000
h    -6.432000 -3.210000 3.030000
o    -11.828000 -2.757000 31.528000
h    -11.158000 -3.395000 31.774000
h    -12.627000 -3.075000 31.948000
o    25.165000 -1.977000 2.727000
h    24.212000 -1.965000 2.644000
h    25.432000 -2.797000 2.313000
o    -3.340000 13.614000 -0.092000
h    -3.972000 13.555000 0.625000
h    -2.876000 12.777000 -0.071000
o    10.282000 -21.868000 21.902000
h    9.969000 -21.908000 20.998000
h    9.800000 -22.561000 22.354000
o    -13.794000 -7.671000 -13.520000
h    -14.007000 -6.729000 -13.311000
h    -13.313000 -7.901000 -12.686000
o    -10.463000 21.655000 1.901000
h    -10.389000 22.590000 1.715000
h    -10.106000 21.227000 1.123000
o    -5.519000 -22.452000 -20.764000
h    -4.619000 -22.452000 -20.438000
h    -5.665000 -23.349000 -21.066000
o    -16.138000 -12.813000 14.019000
h    -16.875000 -12.303000 14.354000
h    -16.534000 -13.627000 13.708000
o    -13.234000 14.565000 -10.270000
h    -12.621000 13.854000 -10.456000
h    -13.778000 14.231000 -9.557000
o    -22.192000 -13.988000 -9.740000
h    -22.682000 -13.509000 -9.072000
h    -21.359000 -14.200000 -9.318000
o    -18.736000 -0.001000 10.531000
h    -18.071000 -0.608000 10.855000
h    -18.398000 0.297000 9.686000
o    19.052000 4.357000 21.142000
h    19.729000 4.957000 21.455000
h    19.344000 3.494000 21.436000
o    -3.194000 12.946000 -4.741000
h    -2.772000 13.755000 -5.033000
h    -3.205000 13.012000 -3.786000
o    -18.658000 -7.888000 9.080000
h    -18.226000 -7.042000 8.968000
h    -19.449000 -7.689000 9.580000
o    15.921000 2.219000 6.359000
h    15.627000 3.120000 6.227000
h    15.408000 1.704000 5.735000
o    14.762000 -0.334000 17.713000
h    15.202000 0.361000 17.224000
h    13.924000 0.049000 17.971000
o    5.326000 -7.891000 6.369000
h    6.095000 -8.102000 5.840000
h    5.004000 -7.066000 6.007000
o    -16.356000 11.728000 10.910000
h    -16.616000 12.632000 11.090000
h    -16.051000 11.743000 10.003000
o    -9.563000 -17.479000 -6.404000
h    -10.376000 -17.888000 -6.699000
h    -9.259000 -16.979000 -7.161000
o    11.931000 -14.422000 -12.015000
h    12.740000 -14.104000 -12.416000
h    11.637000 -13.698000 -11.463000
o    -19.262000 6.179000 4.594000
h    -20.007000 6.587000 4.153000
h    -18.539000 6.793000 4.461000
o    -3.653000 -16.172000 -24.816000
h    -3.685000 -16.185000 -23.860000
h    -3.676000 -17.095000 -25.068000
o    19.201000 -1.503000 16.122000
h    19.847000 -2.103000 16.495000
h    19.712000 -0.740000 15.850000
o    -4.854000 -2.742000 33.419000
h    -5.104000 -2.801000 32.497000
h    -5.477000 -3.308000 33.873000
o    1.748000 16.663000 -14.772000
h    2.128000 16.051000 -14.141000
h    0.936000 16.959000 -14.358000
o    -22.969000 -3.509000 16.778000
h    -23.379000 -4.239000 17.241000
h    -22.520000 -3.916000 16.037000
o    10.954000 -21.343000 -1.775000
h    11.397000 -21.622000 -0.973000
h    10.867000 -22.144000 -2.293000
o    5.054000 -13.498000 -0.632000
h    5.241000 -13.926000 -1.491000
h    4.717000 -12.628000 -0.934000
o    8.802000 8.933000 17.424000
h    8.485000 9.171000 18.295000
h    8.242000 8.203000 17.158000
o    -17.768000 4.069000 -14.395000
h    -18.699000 4.091000 -14.620000
h    -17.375000 3.505000 -15.059000
o    -3.905000 -19.292000 0.414000
h    -3.390000 -19.180000 1.213000
h    -4.593000 -18.630000 0.477000
o    7.382000 24.733000 -4.401000
h    7.273000 24.871000 -5.342000
h    6.558000 24.336000 -4.120000
o    18.576000 12.620000 -8.817000
h    18.680000 11.705000 -9.082000
h    19.086000 12.694000 -8.011000
o    -15.801000 -2.857000 22.275000
h    -16.731000 -3.075000 22.200000
h    -15.791000 -1.968000 22.628000
o    -13.063000 4.566000 29.398000
h    -12.278000 5.058000 29.159000
h    -13.098000 4.621000 30.353000
o    6.580000 18.582000 -3.310000
h    7.495000 18.592000 -3.028000