                                         
                                         
 
 
              Northwest Computational Chemistry Package (NWChem) 6.6
              ------------------------------------------------------
 
 
                    Environmental Molecular Sciences Laboratory
                       Pacific Northwest National Laboratory
                                Richland, WA 99352
 
                              Copyright (c) 1994-2015
                       Pacific Northwest National Laboratory
                            Battelle Memorial Institute
 
             NWChem is an open-source computational chemistry package
                        distributed under the terms of the
                      Educational Community License (ECL) 2.0
             A copy of the license is included with this distribution
                              in the LICENSE.TXT file
 
                                  ACKNOWLEDGMENT
                                  --------------

            This software and its documentation were developed at the
            EMSL at Pacific Northwest National Laboratory, a multiprogram
            national laboratory, operated for the U.S. Department of Energy
            by Battelle under Contract Number DE-AC05-76RL01830. Support
            for this work was provided by the Department of Energy Office
            of Biological and Environmental Research, Office of Basic
            Energy Sciences, and the Office of Advanced Scientific Computing.


           Job information
           ---------------

    hostname        = nid03851
    program         = /work/d137/d137/uccaagh/chemsh-3.7.0-nwchem//bin/chemsh.x
    date            = Tue Dec 10 12:09:58 2019

    compiled        = Thu May 31 16:30:36 BST 2018
    source          = /work/d137/d137/uccaagh/nwchem-6.6/nwchem-6.6
    nwchem branch   = xx
    nwchem revision = 27746
    ga revision     = 10594
    input           = nwchem.nw
    prefix          = nwchem.
    data base       = ./nwchem.db
    status          = startup
    nproc           =        4
    time left       =     -1s



           Memory information
           ------------------

    heap     =   39321600 doubles =    300.0 Mbytes
    stack    =   13107197 doubles =    100.0 Mbytes
    global   =   26214400 doubles =    200.0 Mbytes (distinct from heap & stack)
    total    =   78643197 doubles =    600.0 Mbytes
    verify   = no 
    hardfail = no 


           Directory information
           ---------------------
 
  0 permanent = .
  0 scratch   = .
 
 
 
 
                                NWChem Input Module
                                -------------------
 
 
                            ChemShell nwchem interface
                            --------------------------
 
 
                             Geometry "geometry" -> ""
                             -------------------------
 
 Output coordinates in a.u. (scale by  1.000000000 to convert to a.u.)
 
  No.       Tag          Charge          X              Y              Z
 ---- ---------------- ---------- -------------- -------------- --------------
    1 na                  11.0000   -20.78699330     0.00000000     0.00000000
 
      Atomic Mass 
      ----------- 
 
      na                22.989800
 

 Effective nuclear repulsion energy (a.u.)       0.0000000000

            Nuclear Dipole moment (a.u.) 
            ----------------------------
        X                 Y               Z
 ---------------- ---------------- ----------------
  -228.6569263440     0.0000000000     0.0000000000
 
                   Bq Structure Information (Angstroms)
                   ------------------------------------
    1  Bq        50.00001787   -50.00001787   -50.00001787   charge        0.18274900
    2  Bq        50.00001787   -50.00001787   -38.88890280   charge        0.18274900
    3  Bq        50.00001787   -50.00001787   -27.77778773   charge        0.18274900
    4  Bq        50.00001787   -50.00001787   -16.66667266   charge        0.18274900
    5  Bq        50.00001787   -50.00001787    -5.55555759   charge        0.18274900
    6  Bq        50.00001787   -50.00001787     5.55555759   charge        0.18274900
    7  Bq        50.00001787   -50.00001787    16.66667266   charge        0.18274900
    8  Bq        50.00001787   -50.00001787    27.77778773   charge        0.18274900
    9  Bq        50.00001787   -50.00001787    38.88890280   charge        0.18274900
   10  Bq        50.00001787   -50.00001787    50.00001787   charge        0.18274900
   11  Bq        50.00001787   -38.88890280   -50.00001787   charge        0.18274900
   12  Bq        50.00001787   -38.88890280   -38.88890280   charge        0.18274900
   13  Bq        50.00001787   -38.88890280   -27.77778773   charge        0.18274900
   14  Bq        50.00001787   -38.88890280   -16.66667266   charge        0.18274900
   15  Bq        50.00001787   -38.88890280    -5.55555759   charge        0.18274900
   16  Bq        50.00001787   -38.88890280     5.55555759   charge        0.18274900
   17  Bq        50.00001787   -38.88890280    16.66667266   charge        0.18274900
   18  Bq        50.00001787   -38.88890280    27.77778773   charge        0.18274900
   19  Bq        50.00001787   -38.88890280    38.88890280   charge        0.18274900
   20  Bq        50.00001787   -38.88890280    50.00001787   charge        0.18274900
   21  Bq        50.00001787   -27.77778773   -50.00001787   charge        0.18274900
   22  Bq        50.00001787   -27.77778773   -38.88890280   charge        0.18274900
   23  Bq        50.00001787   -27.77778773   -27.77778773   charge        0.18274900
   24  Bq        50.00001787   -27.77778773   -16.66667266   charge        0.18274900
   25  Bq        50.00001787   -27.77778773    -5.55555759   charge        0.18274900
   26  Bq        50.00001787   -27.77778773     5.55555759   charge        0.18274900
   27  Bq        50.00001787   -27.77778773    16.66667266   charge        0.18274900
   28  Bq        50.00001787   -27.77778773    27.77778773   charge        0.18274900
   29  Bq        50.00001787   -27.77778773    38.88890280   charge        0.18274900
   30  Bq        50.00001787   -27.77778773    50.00001787   charge        0.18274900
   31  Bq        50.00001787   -16.66667266   -50.00001787   charge        0.18274900
   32  Bq        50.00001787   -16.66667266   -38.88890280   charge        0.18274900
   33  Bq        50.00001787   -16.66667266   -27.77778773   charge        0.18274900
   34  Bq        50.00001787   -16.66667266   -16.66667266   charge        0.18274900
   35  Bq        50.00001787   -16.66667266    -5.55555759   charge        0.18274900
   36  Bq        50.00001787   -16.66667266     5.55555759   charge        0.18274900
   37  Bq        50.00001787   -16.66667266    16.66667266   charge        0.18274900
   38  Bq        50.00001787   -16.66667266    27.77778773   charge        0.18274900
   39  Bq        50.00001787   -16.66667266    38.88890280   charge        0.18274900
   40  Bq        50.00001787   -16.66667266    50.00001787   charge        0.18274900
   41  Bq        50.00001787    -5.55555759   -50.00001787   charge        0.18274900
   42  Bq        50.00001787    -5.55555759   -38.88890280   charge        0.18274900
   43  Bq        50.00001787    -5.55555759   -27.77778773   charge        0.18274900
   44  Bq        50.00001787    -5.55555759   -16.66667266   charge        0.18274900
   45  Bq        50.00001787    -5.55555759    -5.55555759   charge        0.18274900
   46  Bq        50.00001787    -5.55555759     5.55555759   charge        0.18274900
   47  Bq        50.00001787    -5.55555759    16.66667266   charge        0.18274900
   48  Bq        50.00001787    -5.55555759    27.77778773   charge        0.18274900
   49  Bq        50.00001787    -5.55555759    38.88890280   charge        0.18274900
   50  Bq        50.00001787    -5.55555759    50.00001787   charge        0.18274900
   51  Bq        50.00001787     5.55555759   -50.00001787   charge        0.18274900
   52  Bq        50.00001787     5.55555759   -38.88890280   charge        0.18274900
   53  Bq        50.00001787     5.55555759   -27.77778773   charge        0.18274900
   54  Bq        50.00001787     5.55555759   -16.66667266   charge        0.18274900
   55  Bq        50.00001787     5.55555759    -5.55555759   charge        0.18274900
   56  Bq        50.00001787     5.55555759     5.55555759   charge        0.18274900
   57  Bq        50.00001787     5.55555759    16.66667266   charge        0.18274900
   58  Bq        50.00001787     5.55555759    27.77778773   charge        0.18274900
   59  Bq        50.00001787     5.55555759    38.88890280   charge        0.18274900
   60  Bq        50.00001787     5.55555759    50.00001787   charge        0.18274900
   61  Bq        50.00001787    16.66667266   -50.00001787   charge        0.18274900
   62  Bq        50.00001787    16.66667266   -38.88890280   charge        0.18274900
   63  Bq        50.00001787    16.66667266   -27.77778773   charge        0.18274900
   64  Bq        50.00001787    16.66667266   -16.66667266   charge        0.18274900
   65  Bq        50.00001787    16.66667266    -5.55555759   charge        0.18274900
   66  Bq        50.00001787    16.66667266     5.55555759   charge        0.18274900
   67  Bq        50.00001787    16.66667266    16.66667266   charge        0.18274900
   68  Bq        50.00001787    16.66667266    27.77778773   charge        0.18274900
   69  Bq        50.00001787    16.66667266    38.88890280   charge        0.18274900
   70  Bq        50.00001787    16.66667266    50.00001787   charge        0.18274900
   71  Bq        50.00001787    27.77778773   -50.00001787   charge        0.18274900
   72  Bq        50.00001787    27.77778773   -38.88890280   charge        0.18274900
   73  Bq        50.00001787    27.77778773   -27.77778773   charge        0.18274900
   74  Bq        50.00001787    27.77778773   -16.66667266   charge        0.18274900
   75  Bq        50.00001787    27.77778773    -5.55555759   charge        0.18274900
   76  Bq        50.00001787    27.77778773     5.55555759   charge        0.18274900
   77  Bq        50.00001787    27.77778773    16.66667266   charge        0.18274900
   78  Bq        50.00001787    27.77778773    27.77778773   charge        0.18274900
   79  Bq        50.00001787    27.77778773    38.88890280   charge        0.18274900
   80  Bq        50.00001787    27.77778773    50.00001787   charge        0.18274900
   81  Bq        50.00001787    38.88890280   -50.00001787   charge        0.18274900
   82  Bq        50.00001787    38.88890280   -38.88890280   charge        0.18274900
   83  Bq        50.00001787    38.88890280   -27.77778773   charge        0.18274900
   84  Bq        50.00001787    38.88890280   -16.66667266   charge        0.18274900
   85  Bq        50.00001787    38.88890280    -5.55555759   charge        0.18274900
   86  Bq        50.00001787    38.88890280     5.55555759   charge        0.18274900
   87  Bq        50.00001787    38.88890280    16.66667266   charge        0.18274900
   88  Bq        50.00001787    38.88890280    27.77778773   charge        0.18274900
   89  Bq        50.00001787    38.88890280    38.88890280   charge        0.18274900
   90  Bq        50.00001787    38.88890280    50.00001787   charge        0.18274900
   91  Bq        50.00001787    50.00001787   -50.00001787   charge        0.18274900
   92  Bq        50.00001787    50.00001787   -38.88890280   charge        0.18274900
   93  Bq        50.00001787    50.00001787   -27.77778773   charge        0.18274900
   94  Bq        50.00001787    50.00001787   -16.66667266   charge        0.18274900
   95  Bq        50.00001787    50.00001787    -5.55555759   charge        0.18274900
   96  Bq        50.00001787    50.00001787     5.55555759   charge        0.18274900
   97  Bq        50.00001787    50.00001787    16.66667266   charge        0.18274900
   98  Bq        50.00001787    50.00001787    27.77778773   charge        0.18274900
   99  Bq        50.00001787    50.00001787    38.88890280   charge        0.18274900
  100  Bq        50.00001787    50.00001787    50.00001787   charge        0.18274900
  101  Bq       -50.00001787   -50.00001787   -50.00001787   charge       -0.18274900
  102  Bq       -50.00001787   -50.00001787   -38.88890280   charge       -0.18274900
  103  Bq       -50.00001787   -50.00001787   -27.77778773   charge       -0.18274900
  104  Bq       -50.00001787   -50.00001787   -16.66667266   charge       -0.18274900
  105  Bq       -50.00001787   -50.00001787    -5.55555759   charge       -0.18274900
  106  Bq       -50.00001787   -50.00001787     5.55555759   charge       -0.18274900
  107  Bq       -50.00001787   -50.00001787    16.66667266   charge       -0.18274900
  108  Bq       -50.00001787   -50.00001787    27.77778773   charge       -0.18274900
  109  Bq       -50.00001787   -50.00001787    38.88890280   charge       -0.18274900
  110  Bq       -50.00001787   -50.00001787    50.00001787   charge       -0.18274900
  111  Bq       -50.00001787   -38.88890280   -50.00001787   charge       -0.18274900
  112  Bq       -50.00001787   -38.88890280   -38.88890280   charge       -0.18274900
  113  Bq       -50.00001787   -38.88890280   -27.77778773   charge       -0.18274900
  114  Bq       -50.00001787   -38.88890280   -16.66667266   charge       -0.18274900
  115  Bq       -50.00001787   -38.88890280    -5.55555759   charge       -0.18274900
  116  Bq       -50.00001787   -38.88890280     5.55555759   charge       -0.18274900
  117  Bq       -50.00001787   -38.88890280    16.66667266   charge       -0.18274900
  118  Bq       -50.00001787   -38.88890280    27.77778773   charge       -0.18274900
  119  Bq       -50.00001787   -38.88890280    38.88890280   charge       -0.18274900
  120  Bq       -50.00001787   -38.88890280    50.00001787   charge       -0.18274900
  121  Bq       -50.00001787   -27.77778773   -50.00001787   charge       -0.18274900
  122  Bq       -50.00001787   -27.77778773   -38.88890280   charge       -0.18274900
  123  Bq       -50.00001787   -27.77778773   -27.77778773   charge       -0.18274900
  124  Bq       -50.00001787   -27.77778773   -16.66667266   charge       -0.18274900
  125  Bq       -50.00001787   -27.77778773    -5.55555759   charge       -0.18274900
  126  Bq       -50.00001787   -27.77778773     5.55555759   charge       -0.18274900
  127  Bq       -50.00001787   -27.77778773    16.66667266   charge       -0.18274900
  128  Bq       -50.00001787   -27.77778773    27.77778773   charge       -0.18274900
  129  Bq       -50.00001787   -27.77778773    38.88890280   charge       -0.18274900
  130  Bq       -50.00001787   -27.77778773    50.00001787   charge       -0.18274900
  131  Bq       -50.00001787   -16.66667266   -50.00001787   charge       -0.18274900
  132  Bq       -50.00001787   -16.66667266   -38.88890280   charge       -0.18274900
  133  Bq       -50.00001787   -16.66667266   -27.77778773   charge       -0.18274900
  134  Bq       -50.00001787   -16.66667266   -16.66667266   charge       -0.18274900
  135  Bq       -50.00001787   -16.66667266    -5.55555759   charge       -0.18274900
  136  Bq       -50.00001787   -16.66667266     5.55555759   charge       -0.18274900
  137  Bq       -50.00001787   -16.66667266    16.66667266   charge       -0.18274900
  138  Bq       -50.00001787   -16.66667266    27.77778773   charge       -0.18274900
  139  Bq       -50.00001787   -16.66667266    38.88890280   charge       -0.18274900
  140  Bq       -50.00001787   -16.66667266    50.00001787   charge       -0.18274900
  141  Bq       -50.00001787    -5.55555759   -50.00001787   charge       -0.18274900
  142  Bq       -50.00001787    -5.55555759   -38.88890280   charge       -0.18274900
  143  Bq       -50.00001787    -5.55555759   -27.77778773   charge       -0.18274900
  144  Bq       -50.00001787    -5.55555759   -16.66667266   charge       -0.18274900
  145  Bq       -50.00001787    -5.55555759    -5.55555759   charge       -0.18274900
  146  Bq       -50.00001787    -5.55555759     5.55555759   charge       -0.18274900
  147  Bq       -50.00001787    -5.55555759    16.66667266   charge       -0.18274900
  148  Bq       -50.00001787    -5.55555759    27.77778773   charge       -0.18274900
  149  Bq       -50.00001787    -5.55555759    38.88890280   charge       -0.18274900
  150  Bq       -50.00001787    -5.55555759    50.00001787   charge       -0.18274900
  151  Bq       -50.00001787     5.55555759   -50.00001787   charge       -0.18274900
  152  Bq       -50.00001787     5.55555759   -38.88890280   charge       -0.18274900
  153  Bq       -50.00001787     5.55555759   -27.77778773   charge       -0.18274900
  154  Bq       -50.00001787     5.55555759   -16.66667266   charge       -0.18274900
  155  Bq       -50.00001787     5.55555759    -5.55555759   charge       -0.18274900
  156  Bq       -50.00001787     5.55555759     5.55555759   charge       -0.18274900
  157  Bq       -50.00001787     5.55555759    16.66667266   charge       -0.18274900
  158  Bq       -50.00001787     5.55555759    27.77778773   charge       -0.18274900
  159  Bq       -50.00001787     5.55555759    38.88890280   charge       -0.18274900
  160  Bq       -50.00001787     5.55555759    50.00001787   charge       -0.18274900
  161  Bq       -50.00001787    16.66667266   -50.00001787   charge       -0.18274900
  162  Bq       -50.00001787    16.66667266   -38.88890280   charge       -0.18274900
  163  Bq       -50.00001787    16.66667266   -27.77778773   charge       -0.18274900
  164  Bq       -50.00001787    16.66667266   -16.66667266   charge       -0.18274900
  165  Bq       -50.00001787    16.66667266    -5.55555759   charge       -0.18274900
  166  Bq       -50.00001787    16.66667266     5.55555759   charge       -0.18274900
  167  Bq       -50.00001787    16.66667266    16.66667266   charge       -0.18274900
  168  Bq       -50.00001787    16.66667266    27.77778773   charge       -0.18274900
  169  Bq       -50.00001787    16.66667266    38.88890280   charge       -0.18274900
  170  Bq       -50.00001787    16.66667266    50.00001787   charge       -0.18274900
  171  Bq       -50.00001787    27.77778773   -50.00001787   charge       -0.18274900
  172  Bq       -50.00001787    27.77778773   -38.88890280   charge       -0.18274900
  173  Bq       -50.00001787    27.77778773   -27.77778773   charge       -0.18274900
  174  Bq       -50.00001787    27.77778773   -16.66667266   charge       -0.18274900
  175  Bq       -50.00001787    27.77778773    -5.55555759   charge       -0.18274900
  176  Bq       -50.00001787    27.77778773     5.55555759   charge       -0.18274900
  177  Bq       -50.00001787    27.77778773    16.66667266   charge       -0.18274900
  178  Bq       -50.00001787    27.77778773    27.77778773   charge       -0.18274900
  179  Bq       -50.00001787    27.77778773    38.88890280   charge       -0.18274900
  180  Bq       -50.00001787    27.77778773    50.00001787   charge       -0.18274900
  181  Bq       -50.00001787    38.88890280   -50.00001787   charge       -0.18274900
  182  Bq       -50.00001787    38.88890280   -38.88890280   charge       -0.18274900
  183  Bq       -50.00001787    38.88890280   -27.77778773   charge       -0.18274900
  184  Bq       -50.00001787    38.88890280   -16.66667266   charge       -0.18274900
  185  Bq       -50.00001787    38.88890280    -5.55555759   charge       -0.18274900
  186  Bq       -50.00001787    38.88890280     5.55555759   charge       -0.18274900
  187  Bq       -50.00001787    38.88890280    16.66667266   charge       -0.18274900
  188  Bq       -50.00001787    38.88890280    27.77778773   charge       -0.18274900
  189  Bq       -50.00001787    38.88890280    38.88890280   charge       -0.18274900
  190  Bq       -50.00001787    38.88890280    50.00001787   charge       -0.18274900
  191  Bq       -50.00001787    50.00001787   -50.00001787   charge       -0.18274900
  192  Bq       -50.00001787    50.00001787   -38.88890280   charge       -0.18274900
  193  Bq       -50.00001787    50.00001787   -27.77778773   charge       -0.18274900
  194  Bq       -50.00001787    50.00001787   -16.66667266   charge       -0.18274900
  195  Bq       -50.00001787    50.00001787    -5.55555759   charge       -0.18274900
  196  Bq       -50.00001787    50.00001787     5.55555759   charge       -0.18274900
  197  Bq       -50.00001787    50.00001787    16.66667266   charge       -0.18274900
  198  Bq       -50.00001787    50.00001787    27.77778773   charge       -0.18274900
  199  Bq       -50.00001787    50.00001787    38.88890280   charge       -0.18274900
  200  Bq       -50.00001787    50.00001787    50.00001787   charge       -0.18274900
  library name resolved from: environment
  library file name is: </work/d137/d137/uccaagh/Scratch/nwchem/libraries/>
  
                      Basis "ao basis" -> "" (cartesian)
                      -----
  na (Sodium)
  -----------
            Exponent  Coefficients 
       -------------- ---------------------------------------------------------
  1 S  9.99320000E+03  0.001938
  1 S  1.49989000E+03  0.014807
  1 S  3.41951000E+02  0.072706
  1 S  9.46797000E+01  0.252629
  1 S  2.97345000E+01  0.493242
  1 S  1.00063000E+01  0.313169
 
  2 S  1.50963000E+02 -0.003542
  2 S  3.55878000E+01 -0.043959
  2 S  1.11683000E+01 -0.109752
  2 S  3.90201000E+00  0.187398
  2 S  1.38177000E+00  0.646699
  2 S  4.66382000E-01  0.306058
 
  3 P  1.50963000E+02  0.005002
  3 P  3.55878000E+01  0.035511
  3 P  1.11683000E+01  0.142825
  3 P  3.90201000E+00  0.338620
  3 P  1.38177000E+00  0.451579
  3 P  4.66382000E-01  0.273271
 
  4 S  4.97966000E-01 -0.248503
  4 S  8.43530000E-02 -0.131704
  4 S  6.66350000E-02  1.233520
 
  5 P  4.97966000E-01 -0.023023
  5 P  8.43530000E-02  0.950359
  5 P  6.66350000E-02  0.059858
 
  6 S  2.59544000E-02  1.000000
 
  7 P  2.59544000E-02  1.000000
 
  8 S  7.60000000E-03  1.000000
 
  9 P  7.60000000E-03  1.000000
 
 10 D  1.75000000E-01  1.000000
 


 Summary of "ao basis" -> "" (cartesian)
 ------------------------------------------------------------------------------
       Tag                 Description            Shells   Functions and Types
 ---------------- ------------------------------  ------  ---------------------
 na                         6-31+g*                 10       23   5s4p1d


 
 
                                NWChem Input Module
                                -------------------
 
 
 
                                 NWChem DFT Module
                                 -----------------
 
 
                            ChemShell nwchem interface
 
 


 Summary of "ao basis" -> "ao basis" (cartesian)
 ------------------------------------------------------------------------------
       Tag                 Description            Shells   Functions and Types
 ---------------- ------------------------------  ------  ---------------------
 na                         6-31+g*                 10       23   5s4p1d


  Caching 1-el integrals 
 
            General Information
            -------------------
          SCF calculation type: DFT
          Wavefunction type:  closed shell.
          No. of atoms     :     1
          No. of electrons :    10
           Alpha electrons :     5
            Beta electrons :     5
          Charge           :     1
          Spin multiplicity:     1
          Use of symmetry is: off; symmetry adaption is: off
          Maximum number of iterations: 100
          AO basis - number of functions:    23
                     number of shells:    10
          Convergence on energy requested: 1.00D-06
          Convergence on density requested: 1.00D-05
          Convergence on gradient requested: 5.00D-04
 
              XC Information
              --------------
                         B3LYP Method XC Potential
                     Hartree-Fock (Exact) Exchange  0.200          
                        Slater Exchange Functional  0.800 local    
                    Becke 1988 Exchange Functional  0.720 non-local
              Lee-Yang-Parr Correlation Functional  0.810          
                  VWN I RPA Correlation Functional  0.190 local    
 
             Grid Information
             ----------------
          Grid used for XC integration:  medium    
          Radial quadrature: Mura-Knowles        
          Angular quadrature: Lebedev. 
          Tag              B.-S. Rad. Rad. Pts. Rad. Cut. Ang. Pts.
          ---              ---------- --------- --------- ---------
          na                  1.80       88          19.0       434
          Grid pruning is: on 
          Number of quadrature shells:    88
          Spatial weights used:  Erf1
 
          Convergence Information
          -----------------------
          Convergence aids based upon iterative change in 
          total energy or number of iterations. 
          Levelshifting, if invoked, occurs when the 
          HOMO/LUMO gap drops below (HL_TOL): 1.00D-02
          DIIS, if invoked, will attempt to extrapolate 
          using up to (NFOCK): 10 stored Fock matrices.

                    Damping( 0%)  Levelshifting(0.5)       DIIS
                  --------------- ------------------- ---------------
          dE  on:    start            ASAP                start   
          dE off:    2 iters        100 iters           100 iters 

 
      Screening Tolerance Information
      -------------------------------
          Density screening/tol_rho: 1.00D-10
          AO Gaussian exp screening on grid/accAOfunc:  25
          CD Gaussian exp screening on grid/accCDfunc:  20
          XC Gaussian exp screening on grid/accXCfunc:  20
          Schwarz screening/accCoul: 1.00D-15

 Nuclear repulsion energy =  0.000000000000000E+000
 Bq nuclear interaction energy = -0.449221747037118     
 
      Superposition of Atomic Density Guess
      -------------------------------------
 
 Sum of atomic energies:        -161.84140329
 Nuclear repulsion energy =  0.000000000000000E+000
 Bq nuclear interaction energy = -0.449221747037118     

 Renormalizing density from      11.00 to     10
 
      Non-variational initial energy
      ------------------------------

 Total energy =    -152.571931
 1-e energy   =    -206.637696
 2-e energy   =      54.514987
 HOMO         =      -2.509511
 LUMO         =      -0.317004
 
 Nuclear repulsion energy =  0.000000000000000E+000
 Bq nuclear interaction energy = -0.449221747037118     
   Time after variat. SCF:      1.8
   Time prior to 1st pass:      1.8
 Nuclear repulsion energy =  0.000000000000000E+000
 Bq nuclear interaction energy = -0.449221747037118     

           Memory utilization after 1st SCF pass: 
           Heap Space remaining (MW):       39.32            39318752
          Stack Space remaining (MW):       13.11            13106948

   convergence    iter        energy       DeltaE   RMS-Dens  Diis-err    time
 ---------------- ----- ----------------- --------- --------- ---------  ------
 d= 0,ls=0.0,diis     1   -162.0978337496 -1.62D+02  1.84D-02  1.55D-01     1.9
 Nuclear repulsion energy =  0.000000000000000E+000
 Bq nuclear interaction energy = -0.449221747037118     
 Nuclear repulsion energy =  0.000000000000000E+000
 Bq nuclear interaction energy = -0.449221747037118     
 d= 0,ls=0.0,diis     2   -162.1219047585 -2.41D-02  1.56D-03  1.19D-03     1.9
 Nuclear repulsion energy =  0.000000000000000E+000
 Bq nuclear interaction energy = -0.449221747037118     
 Nuclear repulsion energy =  0.000000000000000E+000
 Bq nuclear interaction energy = -0.449221747037118     
 d= 0,ls=0.0,diis     3   -162.1220859666 -1.81D-04  3.48D-05  8.04D-07     2.0
 Nuclear repulsion energy =  0.000000000000000E+000
 Bq nuclear interaction energy = -0.449221747037118     
 Nuclear repulsion energy =  0.000000000000000E+000
 Bq nuclear interaction energy = -0.449221747037118     
 d= 0,ls=0.0,diis     4   -162.1220860876 -1.21D-07  6.38D-07  1.71D-10     2.1
 Nuclear repulsion energy =  0.000000000000000E+000
 Bq nuclear interaction energy = -0.449221747037118     


         Total DFT energy =     -162.122086087613
      One electron energy =     -224.188643262100
           Coulomb energy =       76.794994071126
    Exchange-Corr. energy =      -14.279215149601
 Nuclear repulsion energy =       -0.449221747037

 Numeric. integr. density =       10.000000000016

     Total iterative time =      0.2s


 
                       DFT Final Molecular Orbital Analysis
                       ------------------------------------
 
 Vector    1  Occ=2.000000D+00  E=-3.875066D+01
              MO Center= -1.1D+01,  2.9D-19,  5.2D-18, r^2= 7.7D-03
   Bfn.  Coefficient  Atom+Function         Bfn.  Coefficient  Atom+Function  
  ----- ------------  ---------------      ----- ------------  ---------------
     1      0.997747  1 Na s          
 
 Vector    2  Occ=2.000000D+00  E=-2.480239D+00
              MO Center= -1.1D+01,  4.9D-17,  1.4D-16, r^2= 2.1D-01
   Bfn.  Coefficient  Atom+Function         Bfn.  Coefficient  Atom+Function  
  ----- ------------  ---------------      ----- ------------  ---------------
     2      1.027159  1 Na s                  1     -0.246189  1 Na s          
 
 Vector    3  Occ=2.000000D+00  E=-1.411709D+00
              MO Center= -1.1D+01, -3.9D-14,  3.9D-14, r^2= 2.3D-01
   Bfn.  Coefficient  Atom+Function         Bfn.  Coefficient  Atom+Function  
  ----- ------------  ---------------      ----- ------------  ---------------
     4      0.704081  1 Na py                 5     -0.705648  1 Na pz         
 
 Vector    4  Occ=2.000000D+00  E=-1.411709D+00
              MO Center= -1.1D+01, -4.3D-14, -4.3D-14, r^2= 2.3D-01
   Bfn.  Coefficient  Atom+Function         Bfn.  Coefficient  Atom+Function  
  ----- ------------  ---------------      ----- ------------  ---------------
     4      0.705648  1 Na py                 5      0.704081  1 Na pz         
 
 Vector    5  Occ=2.000000D+00  E=-1.411707D+00
              MO Center= -1.1D+01,  8.1D-14,  3.9D-15, r^2= 2.3D-01
   Bfn.  Coefficient  Atom+Function         Bfn.  Coefficient  Atom+Function  
  ----- ------------  ---------------      ----- ------------  ---------------
     3      0.996830  1 Na px         
 
 Vector    6  Occ=0.000000D+00  E=-2.160539D-01
              MO Center= -1.1D+01,  2.5D-15,  2.7D-16, r^2= 4.2D+00
   Bfn.  Coefficient  Atom+Function         Bfn.  Coefficient  Atom+Function  
  ----- ------------  ---------------      ----- ------------  ---------------
     6      0.759369  1 Na s                 10      0.194900  1 Na s          
     2     -0.186201  1 Na s          
 
 Vector    7  Occ=0.000000D+00  E=-1.083195D-01
              MO Center= -1.1D+01, -6.5D-15,  1.2D-14, r^2= 7.1D+00
   Bfn.  Coefficient  Atom+Function         Bfn.  Coefficient  Atom+Function  
  ----- ------------  ---------------      ----- ------------  ---------------
     9      0.581776  1 Na pz                13      0.387510  1 Na pz         
     8     -0.300969  1 Na py                12     -0.200470  1 Na py         
 
 Vector    8  Occ=0.000000D+00  E=-1.083195D-01
              MO Center= -1.1D+01, -1.4D-14, -7.2D-15, r^2= 7.1D+00
   Bfn.  Coefficient  Atom+Function         Bfn.  Coefficient  Atom+Function  
  ----- ------------  ---------------      ----- ------------  ---------------
     8      0.581776  1 Na py                12      0.387510  1 Na py         
     9      0.300969  1 Na pz                13      0.200470  1 Na pz         
 
 Vector    9  Occ=0.000000D+00  E=-1.082876D-01
              MO Center= -1.1D+01,  2.3D-14, -6.7D-15, r^2= 7.2D+00
   Bfn.  Coefficient  Atom+Function         Bfn.  Coefficient  Atom+Function  
  ----- ------------  ---------------      ----- ------------  ---------------
     7      0.650586  1 Na px                11      0.435499  1 Na px         
     3     -0.159018  1 Na px         
 
 Vector   10  Occ=0.000000D+00  E=-4.647934D-02
              MO Center= -8.6D+00,  4.6D-15,  2.5D-15, r^2= 3.1D+01
   Bfn.  Coefficient  Atom+Function         Bfn.  Coefficient  Atom+Function  
  ----- ------------  ---------------      ----- ------------  ---------------
    14      1.083649  1 Na s                  6     -0.581453  1 Na s          
    15      0.436385  1 Na px                 7     -0.206035  1 Na px         
 
 Vector   11  Occ=0.000000D+00  E=-1.971112D-02
              MO Center= -1.1D+01, -2.8D-14,  2.4D-15, r^2= 4.6D+01
   Bfn.  Coefficient  Atom+Function         Bfn.  Coefficient  Atom+Function  
  ----- ------------  ---------------      ----- ------------  ---------------
    16      1.019287  1 Na py                 8     -0.448737  1 Na py         
 
 Vector   12  Occ=0.000000D+00  E=-1.971112D-02
              MO Center= -1.1D+01, -5.8D-16, -7.3D-15, r^2= 4.6D+01
   Bfn.  Coefficient  Atom+Function         Bfn.  Coefficient  Atom+Function  
  ----- ------------  ---------------      ----- ------------  ---------------
    17      1.019287  1 Na pz                 9     -0.448737  1 Na pz         
 
 Vector   13  Occ=0.000000D+00  E=-1.464826D-02
              MO Center= -1.3D+01,  1.4D-14,  4.0D-15, r^2= 3.9D+01
   Bfn.  Coefficient  Atom+Function         Bfn.  Coefficient  Atom+Function  
  ----- ------------  ---------------      ----- ------------  ---------------
    15      0.932160  1 Na px                 6      0.717344  1 Na s          
    10     -0.452417  1 Na s                  7     -0.382870  1 Na px         
    14     -0.303895  1 Na s          
 
 Vector   14  Occ=0.000000D+00  E= 3.948467D-02
              MO Center= -8.5D+00, -1.7D-14,  1.4D-14, r^2= 2.4D+01
   Bfn.  Coefficient  Atom+Function         Bfn.  Coefficient  Atom+Function  
  ----- ------------  ---------------      ----- ------------  ---------------
    10      2.645443  1 Na s                  6     -2.376654  1 Na s          
    11      1.327766  1 Na px                14     -1.082208  1 Na s          
     7     -0.969727  1 Na px                15     -0.623562  1 Na px         
    21      0.279759  1 Na dyy               23      0.279759  1 Na dzz        
    18      0.268503  1 Na dxx        
 
 Vector   15  Occ=0.000000D+00  E= 4.848182D-02
              MO Center= -1.1D+01,  6.7D-14, -1.0D-13, r^2= 3.1D+01
   Bfn.  Coefficient  Atom+Function         Bfn.  Coefficient  Atom+Function  
  ----- ------------  ---------------      ----- ------------  ---------------
    13      1.485225  1 Na pz                 9     -1.032609  1 Na pz         
    12     -0.997604  1 Na py                17     -0.787156  1 Na pz         
     8      0.693589  1 Na py                16      0.528722  1 Na py         
 
 Vector   16  Occ=0.000000D+00  E= 4.848182D-02
              MO Center= -1.1D+01,  1.3D-13,  8.6D-14, r^2= 3.1D+01
   Bfn.  Coefficient  Atom+Function         Bfn.  Coefficient  Atom+Function  
  ----- ------------  ---------------      ----- ------------  ---------------
    12      1.485225  1 Na py                 8     -1.032609  1 Na py         
    13      0.997604  1 Na pz                16     -0.787156  1 Na py         
     9     -0.693589  1 Na pz                17     -0.528722  1 Na pz         
 
 Vector   17  Occ=0.000000D+00  E= 6.013364D-02
              MO Center= -1.4D+01, -1.8D-13, -1.2D-15, r^2= 2.7D+01
   Bfn.  Coefficient  Atom+Function         Bfn.  Coefficient  Atom+Function  
  ----- ------------  ---------------      ----- ------------  ---------------
    10      2.915239  1 Na s                  6     -2.528155  1 Na s          
    14     -1.214090  1 Na s                 11     -1.197499  1 Na px         
     7      0.790871  1 Na px                15      0.704745  1 Na px         
    18      0.273370  1 Na dxx               21      0.263809  1 Na dyy        
    23      0.263809  1 Na dzz        
 
 Vector   18  Occ=0.000000D+00  E= 1.738073D-01
              MO Center= -1.1D+01, -5.0D-15, -8.1D-15, r^2= 2.8D+00
   Bfn.  Coefficient  Atom+Function         Bfn.  Coefficient  Atom+Function  
  ----- ------------  ---------------      ----- ------------  ---------------
    21      0.866025  1 Na dyy               23     -0.866025  1 Na dzz        
 
 Vector   19  Occ=0.000000D+00  E= 1.738073D-01
              MO Center= -1.1D+01,  6.0D-15, -2.7D-14, r^2= 2.8D+00
   Bfn.  Coefficient  Atom+Function         Bfn.  Coefficient  Atom+Function  
  ----- ------------  ---------------      ----- ------------  ---------------
    22      1.732051  1 Na dyz        
 
 Vector   20  Occ=0.000000D+00  E= 1.738527D-01
              MO Center= -1.1D+01,  3.0D-14, -2.1D-13, r^2= 2.8D+00
   Bfn.  Coefficient  Atom+Function         Bfn.  Coefficient  Atom+Function  
  ----- ------------  ---------------      ----- ------------  ---------------
    20      1.705185  1 Na dxz               19     -0.303070  1 Na dxy        
 
 Vector   21  Occ=0.000000D+00  E= 1.738527D-01
              MO Center= -1.1D+01,  5.0D-13,  1.1D-13, r^2= 2.8D+00
   Bfn.  Coefficient  Atom+Function         Bfn.  Coefficient  Atom+Function  
  ----- ------------  ---------------      ----- ------------  ---------------
    19      1.705185  1 Na dxy               20      0.303070  1 Na dxz        
 
 Vector   22  Occ=0.000000D+00  E= 1.738679D-01
              MO Center= -1.1D+01, -5.3D-13,  1.4D-13, r^2= 2.8D+00
   Bfn.  Coefficient  Atom+Function         Bfn.  Coefficient  Atom+Function  
  ----- ------------  ---------------      ----- ------------  ---------------
    18      1.000152  1 Na dxx               21     -0.499683  1 Na dyy        
    23     -0.499683  1 Na dzz        
 
 Vector   23  Occ=0.000000D+00  E= 4.491957D-01
              MO Center= -1.1D+01,  1.7D-16, -8.6D-16, r^2= 1.5D+01
   Bfn.  Coefficient  Atom+Function         Bfn.  Coefficient  Atom+Function  
  ----- ------------  ---------------      ----- ------------  ---------------
     6      9.650296  1 Na s                 10     -4.080098  1 Na s          
    18     -3.039632  1 Na dxx               21     -3.039702  1 Na dyy        
    23     -3.039702  1 Na dzz               14      0.853807  1 Na s          
     2      0.292661  1 Na s          
 
 Nuclear repulsion energy =  0.000000000000000E+000
 Bq nuclear interaction energy = -0.449221747037118     
 
            General Information
            -------------------
          SCF calculation type: DFT
          Wavefunction type:  closed shell.
          No. of atoms     :     1
          No. of electrons :    10
           Alpha electrons :     5
            Beta electrons :     5
          Charge           :     1
          Spin multiplicity:     1
          Use of symmetry is: off; symmetry adaption is: off
          Maximum number of iterations: 100
          AO basis - number of functions:    23
                     number of shells:    10
          Convergence on energy requested: 1.00D-06
          Convergence on density requested: 1.00D-05
          Convergence on gradient requested: 5.00D-04
 
              XC Information
              --------------
                         B3LYP Method XC Potential
                     Hartree-Fock (Exact) Exchange  0.200          
                        Slater Exchange Functional  0.800 local    
                    Becke 1988 Exchange Functional  0.720 non-local
              Lee-Yang-Parr Correlation Functional  0.810          
                  VWN I RPA Correlation Functional  0.190 local    
 
             Grid Information
             ----------------
          Grid used for XC integration:  medium    
          Radial quadrature: Mura-Knowles        
          Angular quadrature: Lebedev. 
          Tag              B.-S. Rad. Rad. Pts. Rad. Cut. Ang. Pts.
          ---              ---------- --------- --------- ---------
          na                  1.80       88          19.0       434
          Grid pruning is: on 
          Number of quadrature shells:    88
          Spatial weights used:  Erf1
 
          Convergence Information
          -----------------------
          Convergence aids based upon iterative change in 
          total energy or number of iterations. 
          Levelshifting, if invoked, occurs when the 
          HOMO/LUMO gap drops below (HL_TOL): 1.00D-02
          DIIS, if invoked, will attempt to extrapolate 
          using up to (NFOCK): 10 stored Fock matrices.

                    Damping( 0%)  Levelshifting(0.5)       DIIS
                  --------------- ------------------- ---------------
          dE  on:    start            ASAP                start   
          dE off:    2 iters        100 iters           100 iters 

 
      Screening Tolerance Information
      -------------------------------
          Density screening/tol_rho: 1.00D-10
          AO Gaussian exp screening on grid/accAOfunc:  25
          CD Gaussian exp screening on grid/accCDfunc:  20
          XC Gaussian exp screening on grid/accXCfunc:  20
          Schwarz screening/accCoul: 1.00D-15

 
 
                            NWChem DFT Gradient Module
                            --------------------------
 
 
                            ChemShell nwchem interface
 
 

  charge          =   1.00
  wavefunction    = closed shell

 Nuclear repulsion energy =  0.000000000000000E+000
 Bq nuclear interaction energy = -0.449221747037118     
 Nuclear repulsion energy =  0.000000000000000E+000
 Bq nuclear interaction energy = -0.449221747037118     


                         DFT ENERGY GRADIENTS

    atom               coordinates                        gradient
                 x          y          z           x          y          z
   1 na    -20.786993   0.000000   0.000000    0.002002  -0.000000   0.000000
 
                 ----------------------------------------
                 |  Time  |  1-e(secs)   |  2-e(secs)   |
                 ----------------------------------------
                 |  CPU   |       0.01   |       0.00   |
                 ----------------------------------------
                 |  WALL  |       0.01   |       0.00   |
                 ----------------------------------------
                              NWChem Property Module
                              ----------------------
 
 
                            ChemShell nwchem interface
 
 
 
 
                                     CITATION
                                     --------
                Please cite the following reference when publishing
                           results obtained with NWChem:
 
                 M. Valiev, E.J. Bylaska, N. Govind, K. Kowalski,
              T.P. Straatsma, H.J.J. van Dam, D. Wang, J. Nieplocha,
                        E. Apra, T.L. Windus, W.A. de Jong
                 "NWChem: a comprehensive and scalable open-source
                  solution for large scale molecular simulations"
                      Comput. Phys. Commun. 181, 1477 (2010)
                           doi:10.1016/j.cpc.2010.04.018
 
                                      AUTHORS
                                      -------
          E. Apra, E. J. Bylaska, W. A. de Jong, N. Govind, K. Kowalski,
       T. P. Straatsma, M. Valiev, H. J. J. van Dam, D. Wang, T. L. Windus,
        J. Hammond, J. Autschbach, K. Bhaskaran-Nair, J. Brabec, K. Lopata,
       S. A. Fischer, S. Krishnamoorthy, W. Ma, M. Klemm, O. Villa, Y. Chen,
    V. Anisimov, F. Aquino, S. Hirata, M. T. Hackler, T. Risthaus, M. Malagoli,
       A. Marenich, A. Otero-de-la-Roza, J. Mullin, P. Nichols, R. Peverati,
     J. Pittner, Y. Zhao, P.-D. Fan, A. Fonari, M. Williamson, R. J. Harrison,
       J. R. Rehr, M. Dupuis, D. Silverstein, D. M. A. Smith, J. Nieplocha,
        V. Tipparaju, M. Krishnan, B. E. Van Kuiken, A. Vazquez-Mayagoitia,
        L. Jensen, M. Swart, Q. Wu, T. Van Voorhis, A. A. Auer, M. Nooijen,
      L. D. Crosby, E. Brown, G. Cisneros, G. I. Fann, H. Fruchtl, J. Garza,
        K. Hirao, R. A. Kendall, J. A. Nichols, K. Tsemekhman, K. Wolinski,
     J. Anchell, D. E. Bernholdt, P. Borowski, T. Clark, D. Clerc, H. Dachsel,
   M. J. O. Deegan, K. Dyall, D. Elwood, E. Glendening, M. Gutowski, A. C. Hess,
         J. Jaffe, B. G. Johnson, J. Ju, R. Kobayashi, R. Kutteh, Z. Lin,
   R. Littlefield, X. Long, B. Meng, T. Nakajima, S. Niu, L. Pollack, M. Rosing,
   K. Glaesemann, G. Sandrone, M. Stave, H. Taylor, G. Thomas, J. H. van Lenthe,
                               A. T. Wong, Z. Zhang.

 Total times  cpu:        2.2s     wall:        0.7s
