9038
Energy = 0.00 kcal/mol
h    -1.538943 8.241737 -17.605409
o    -2.358080 8.396607 -17.085761
c    -3.501876 8.236778 -17.922306
h    -3.222348 8.427083 -18.960211
h    -4.252352 8.977458 -17.641991
c    -4.149853 6.841335 -17.829901
h    -5.036803 6.829705 -18.464579
o    -3.231050 5.865032 -18.311065
c    -3.220175 4.773264 -17.404235
h    -4.031963 4.078395 -17.647464
n    -1.894518 4.098455 -17.460307
c    -0.748104 4.825071 -17.260240
h    -0.820610 5.884448 -17.048382
c    0.460827 4.223459 -17.331788
h    1.361524 4.794292 -17.181780
c    0.484037 2.832493 -17.587290
n    1.629993 2.216457 -17.604316
h    1.618789 1.208265 -17.695899
h    2.426029 2.699984 -17.194455
n    -0.596652 2.117083 -17.832031
c    -1.805121 2.731977 -17.767922
o    -2.804568 2.045230 -18.002285
c    -4.582485 6.429660 -16.409546
h    -4.559096 7.283430 -15.733010
c    -3.506672 5.415357 -16.045736
h    -2.632567 5.934573 -15.653075
h    -3.865238 4.691034 -15.321115
o    -5.887110 5.860287 -16.434996
p    -6.745075 5.586323 -15.101646
o    -8.121585 6.083731 -15.326892
o    -6.002980 6.100075 -13.924820
o    -6.802373 3.984459 -14.966451
c    -7.649274 3.214949 -15.815905
h    -7.284228 3.299317 -16.840665
h    -8.650100 3.647780 -15.784767
c    -7.797122 1.716462 -15.475059
h    -8.585207 1.339728 -16.122538
o    -6.615691 0.968659 -15.760293
c    -6.033873 0.508282 -14.546023
h    -6.158632 -0.575058 -14.454876
n    -4.591076 0.848360 -14.568955
c    -4.016382 2.085147 -14.414105
h    -4.608384 2.972280 -14.229725
n    -2.715721 2.098863 -14.521348
c    -2.398336 0.754390 -14.765809
c    -1.129859 0.100205 -14.954009
o    0.002545 0.581294 -14.973080
n    -1.233853 -1.260247 -15.117068
h    -0.369181 -1.779213 -15.179808
c    -2.405240 -1.933397 -15.116154
n    -2.313319 -3.226440 -15.220900
h    -1.396958 -3.654532 -15.324599
h    -3.131678 -3.806949 -15.117223
n    -3.612282 -1.380495 -14.972807
c    -3.541701 -0.020922 -14.791359
c    -8.195220 1.384912 -14.030459
h    -8.723795 2.213891 -13.553975
c    -6.813144 1.189290 -13.414498
h    -6.393760 2.161658 -13.161339
h    -6.851690 0.576174 -12.519128
o    -9.016678 0.217270 -14.060435
p    -9.458408 -0.600670 -12.754528
o    -10.715835 -1.314093 -13.081383
o    -9.421129 0.263302 -11.561724
o    -8.302921 -1.686316 -12.615609
c    -8.171612 -2.748689 -13.549376
h    -7.906413 -2.350027 -14.529647
h    -9.121639 -3.277933 -13.636975
c    -7.101870 -3.752359 -13.106663
h    -7.090604 -4.581285 -13.815016
o    -5.824012 -3.123411 -13.087698
c    -5.203585 -3.394779 -11.863543
h    -4.706874 -4.385991 -11.916351
n    -4.219130 -2.303002 -11.587188
c    -4.652662 -1.011540 -11.403720
h    -5.724735 -0.863426 -11.309912
c    -3.792652 0.033707 -11.342502
h    -4.147630 1.044103 -11.167090
c    -2.385770 -0.210870 -11.517578
n    -1.455289 0.706308 -11.536670
h    -0.252107 0.488555 -11.693202
h    -1.783941 1.653291 -11.382523
n    -2.007119 -1.522629 -11.682343
c    -2.864316 -2.592230 -11.727033
o    -2.444497 -3.741156 -11.885515
c    -7.362125 -4.300031 -11.694711
h    -8.382761 -4.066743 -11.380945
c    -6.349767 -3.513082 -10.864529
h    -6.779470 -2.549021 -10.597509
h    -6.046068 -4.040599 -9.961730
o    -7.129767 -5.703263 -11.647849
p    -7.607483 -6.570916 -10.384084
o    -7.697949 -7.979460 -10.832454
o    -8.803178 -5.921932 -9.812787
o    -6.394642 -6.446843 -9.361046
c    -5.188975 -7.145592 -9.613562
h    -4.926225 -7.006985 -10.661596
h    -5.351458 -8.210096 -9.439387
c    -3.989234 -6.688084 -8.779184
h    -3.148328 -7.320814 -9.046192
o    -3.655118 -5.336764 -9.089515
c    -3.408628 -4.687963 -7.860019
h    -2.412532 -4.959760 -7.501596
n    -3.451990 -3.217765 -7.991275
c    -4.508791 -2.353203 -7.856955
h    -5.525333 -2.697981 -7.702568
n    -4.174437 -1.089235 -7.923116
c    -2.784796 -1.120399 -8.130821
c    -1.804330 -0.071252 -8.279691
o    -1.952765 1.153762 -8.243323
n    -0.528877 -0.544672 -8.512468
h    0.222626 0.127868 -8.576348
c    -0.211261 -1.857972 -8.588331
n    1.041547 -2.145556 -8.784367
h    1.746809 -1.409892 -8.797184
h    1.329693 -3.110798 -8.758329
n    -1.071098 -2.861900 -8.436282
c    -2.348516 -2.425929 -8.210056
c    -4.186961 -6.779797 -7.256805
h    -5.032277 -7.415777 -6.985109
c    -4.442811 -5.315288 -6.926787
h    -5.459449 -5.030307 -7.202792
h    -4.233814 -5.105144 -5.881286
o    -2.969882 -7.169192 -6.623991
p    -2.866644 -8.383916 -5.602192
o    -3.139282 -9.659425 -6.311026
o    -3.636731 -8.054073 -4.385621
o    -1.328446 -8.336774 -5.204794
c    -0.316106 -8.774335 -6.099515
h    -0.680549 -8.709475 -7.120417
h    -0.065598 -9.812921 -5.882227
c    0.957107 -7.924873 -6.029081
h    1.677770 -8.344490 -6.733611
o    0.657971 -6.579211 -6.399468
c    1.050039 -5.714165 -5.343308
h    2.062623 -5.339941 -5.527376
n    0.108367 -4.578185 -5.229090
c    -1.231154 -4.595099 -4.919405
h    -1.780822 -5.521316 -4.796224
n    -1.772170 -3.409626 -4.783196
c    -0.688590 -2.545288 -5.035949
c    -0.495276 -1.141419 -5.060755
n    -1.395026 -0.215881 -4.789863
h    -1.099259 0.747037 -4.838021
h    -2.306044 -0.464168 -4.423132
n    0.681189 -0.611289 -5.384675
c    1.685471 -1.426638 -5.674053
h    2.625085 -0.954605 -5.930991
n    1.672556 -2.756838 -5.680848
c    0.444952 -3.251720 -5.345342
c    1.596320 -7.889098 -4.637126
h    1.271054 -8.744227 -4.038971
c    1.072385 -6.574751 -4.081389
h    0.069962 -6.714085 -3.679472
h    1.741489 -6.167655 -3.324450
o    3.006688 -7.865420 -4.785595
p    3.998526 -8.248055 -3.590885
o    5.095440 -9.009365 -4.228492
o    3.232272 -8.885474 -2.502487
o    4.515857 -6.824553 -3.080927
c    5.454239 -6.081855 -3.848603
h    5.250479 -6.217555 -4.908373
h    6.453990 -6.467841 -3.647692
c    5.442937 -4.573413 -3.570495
h    6.179115 -4.097566 -4.221750
o    4.175661 -3.974068 -3.782085
c    4.228367 -2.691514 -3.169586
h    4.493356 -1.933331 -3.913931
n    2.929430 -2.331470 -2.567628
c    1.887900 -3.144744 -2.196573
h    1.949959 -4.222599 -2.261571
n    0.824348 -2.502378 -1.782209
c    1.224753 -1.156196 -1.860681
c    0.616730 0.095347 -1.596808
n    -0.618865 0.282267 -1.176529
h    -0.944888 1.233000 -1.072293
h    -1.185451 -0.518079 -0.939540
n    1.293406 1.231297 -1.737790
c    2.555073 1.164876 -2.129426
h    3.067571 2.111147 -2.230058
n    3.260284 0.084039 -2.432594
c    2.521220 -1.052147 -2.288568
c    5.769603 -4.204899 -2.132416
h    5.154817 -4.791813 -1.454580
c    5.332832 -2.747580 -2.111904
h    4.983423 -2.460676 -1.121313
h    6.150362 -2.097324 -2.415759
o    7.154521 -4.355716 -1.902966
p    7.781791 -4.391104 -0.443712
o    9.191922 -4.790158 -0.634090
o    6.906092 -5.223403 0.418697
o    7.721390 -2.865058 0.054634
c    8.470636 -1.849972 -0.621862
h    8.236525 -1.888105 -1.685142
h    9.535384 -2.060614 -0.528051
c    8.228947 -0.401113 -0.154055
h    8.723978 0.255676 -0.868706
o    6.833913 -0.108622 -0.141654
c    6.493477 0.421826 1.130886
h    6.645722 1.506372 1.121392
n    5.080838 0.084803 1.446495
c    4.649649 -1.224987 1.405921
h    5.377791 -2.006208 1.218707
c    3.331728 -1.530099 1.541564
c    2.897235 -2.981688 1.454790
h    2.370988 -3.248315 2.369486
h    2.209909 -3.110692 0.621139
h    3.753104 -3.645754 1.326589
c    2.339988 -0.473537 1.750696
o    1.119270 -0.615886 1.818100
n    2.860995 0.796255 1.841700
h    2.223219 1.560930 2.012995
c    4.182423 1.132535 1.680595
o    4.502338 2.317218 1.711485
c    8.762558 -0.049702 1.242585
h    9.542737 -0.752608 1.549045
c    7.508956 -0.185240 2.094120
h    7.304902 -1.236550 2.291226
h    7.584397 0.384366 3.020282
o    9.240605 1.298780 1.241223
p    10.178000 1.864000 2.420000
o    11.212000 2.724000 1.767000
o    10.661000 0.725000 3.188000
o    9.225000 2.669000 3.454000
c    8.690000 3.926000 3.078000
h    8.197000 3.838000 2.111000
h    9.499000 4.653000 2.993000
c    7.681000 4.528000 4.053000
h    7.371000 5.435000 3.534000
o    6.543000 3.697000 4.177000
c    6.131000 3.688000 5.513000
h    5.499000 4.553000 5.713000
n    5.294000 2.446000 5.644000
c    5.956000 1.225000 5.555000
h    7.028000 1.085000 5.546000
c    5.254000 0.064000 5.471000
c    6.085000 -1.238000 5.339000
h    5.708000 -1.968000 6.056000
h    5.809000 -1.629000 4.359000
h    7.160000 -1.071000 5.280000
c    3.798000 0.095000 5.344000
o    3.046000 -0.905000 5.223000
n    3.226000 1.355000 5.513000
h    2.221000 1.422000 5.455000
c    3.861000 2.524000 5.644000
o    3.328000 3.594000 5.777000
c    8.305000 4.707000 5.415000
h    9.338000 4.363000 5.451000
c    7.438000 3.772000 6.289000
h    7.877000 2.775000 6.260000
h    7.305000 4.204000 7.282000
o    8.255000 6.050000 5.792000
p    8.860000 6.690000 7.141000
o    9.045000 8.141000 6.888000
o    9.934000 5.817000 7.584000
o    7.533000 6.517000 8.019000
c    6.337000 7.202000 7.657000
h    6.096000 6.972000 6.619000
h    6.571000 8.263000 7.748000
c    5.227000 6.913000 8.633000
h    4.414000 7.623000 8.474000
o    4.759000 5.606000 8.433000
c    4.596000 5.043000 9.658000
h    3.672000 5.475000 10.042000
n    4.574000 3.567000 9.634000
c    5.711000 2.862000 9.367000
h    6.713000 3.257000 9.303000
c    5.646000 1.510000 9.178000
h    6.547000 0.966000 8.939000
c    4.406000 0.924000 9.321000
n    4.315000 -0.323000 9.360000
h    3.382000 -0.704000 9.429000
h    5.185000 -0.827000 9.262000
n    3.250000 1.597000 9.516000
c    3.330000 2.974000 9.582000
o    2.252000 3.579000 9.593000
c    5.665000 7.018000 10.089000
h    6.635000 7.515000 10.064000
c    5.673000 5.549000 10.588000
h    6.663000 5.133000 10.401000
h    5.307000 5.495000 11.613000
o    4.651000 7.745000 10.787000
p    4.972000 8.986000 11.815000
o    5.409000 10.141000 10.939000
o    5.910000 8.514000 12.877000
o    3.481000 9.247000 12.468000
c    2.475000 9.766000 11.651000
h    2.692000 9.593000 10.598000
h    2.425000 10.815000 11.943000
c    1.125000 9.099000 11.924000
h    0.349000 9.566000 11.316000
o    1.260000 7.802000 11.509000
c    0.623000 6.901000 12.392000
h    -0.447000 6.747000 12.258000
n    1.313000 5.606000 12.451000
c    2.606000 5.489000 12.676000
h    3.396000 6.212000 12.537000
n    2.978000 4.227000 12.862000
c    1.774000 3.518000 12.814000
c    1.579000 2.147000 12.964000
o    2.393000 1.229000 13.168000
n    0.248000 1.801000 12.920000
h    -0.144000 0.873000 12.973000
c    -0.805000 2.706000 12.724000
n    -1.984000 2.192000 12.597000
h    -2.132000 1.206000 12.757000
h    -2.721000 2.754000 12.195000
n    -0.629000 3.970000 12.442000
c    0.697000 4.360000 12.602000
c    0.539000 9.159000 13.322000
h    1.187000 9.812000 13.906000
c    0.751000 7.706000 13.731000
h    1.792000 7.742000 14.053000
h    -0.052000 7.346000 14.374000
o    -0.810000 9.678000 13.223000
p    -1.521000 10.393000 14.498000
o    -2.900000 10.833000 14.175000
o    -0.582000 11.403000 15.023000
o    -1.614000 9.117000 15.576000
c    -2.728000 8.206000 15.620000
h    -3.015000 7.969000 14.595000
h    -3.550000 8.789000 16.036000
c    -2.455000 6.943000 16.457000
h    -3.420000 6.435000 16.487000
o    -1.416000 6.148000 15.958000
c    -1.154000 5.134000 16.851000
h    -1.891000 4.348000 16.680000
n    0.194000 4.590000 16.639000
c    1.318000 5.347000 16.322000
h    1.160000 6.411000 16.227000
c    2.536000 4.811000 16.179000
h    3.388000 5.447000 15.987000
c    2.558000 3.396000 16.145000
n    3.622000 2.688000 15.775000
h    3.497000 1.708000 15.565000
h    4.537000 3.054000 15.557000
n    1.544000 2.640000 16.331000
c    0.356000 3.195000 16.568000
o    -0.565000 2.451000 16.855000
c    -2.096000 7.077000 17.914000
h    -1.326000 7.834000 18.067000
c    -1.404000 5.735000 18.215000
h    -0.482000 5.975000 18.744000
h    -2.022000 5.032000 18.773000
o    -3.275000 7.297000 18.696000
p    -3.416000 7.149000 20.250000
o    -4.689000 7.775000 20.570000
o    -2.239000 7.691000 20.935000
o    -3.596000 5.543000 20.585000
c    -4.635000 4.847000 19.947000
h    -4.616000 4.889000 18.858000
h    -5.536000 5.343000 20.308000
c    -4.804000 3.369000 20.387000
h    -5.746000 2.931000 20.055000
o    -3.737000 2.655000 19.731000
c    -3.012000 1.832000 20.685000
h    -3.348000 0.797000 20.760000
n    -1.564000 1.812000 20.508000
c    -0.704000 2.843000 20.347000
h    -1.074000 3.853000 20.433000
n    0.580000 2.597000 20.088000
c    0.497000 1.171000 19.916000
c    1.479000 0.160000 19.589000
o    2.632000 0.296000 19.359000
n    0.972000 -1.075000 19.439000
h    1.626000 -1.824000 19.260000
c    -0.271000 -1.427000 19.585000
n    -0.501000 -2.713000 19.691000
h    0.256000 -3.308000 19.384000
h    -1.468000 -2.999000 19.743000
n    -1.273000 -0.552000 19.963000
c    -0.790000 0.716000 20.138000
c    -4.688000 3.106000 21.950000
h    -4.870000 4.057000 22.451000
c    -3.295000 2.522000 22.087000
h    -2.549000 3.305000 22.220000
h    -3.332000 1.942000 23.009000
o    -5.664000 2.165000 22.439000
h    -5.531000 2.143000 23.390000
h    7.352000 -8.270000 18.265000
o    6.843000 -7.786000 18.920000
c    6.151000 -8.713000 19.694000
h    6.403000 -8.620000 20.749000
h    6.391000 -9.769000 19.563000
c    4.599000 -8.715000 19.468000
h    4.290000 -9.572000 20.065000
o    3.842000 -7.655000 20.009000
c    3.390000 -6.798000 18.964000
h    2.304000 -6.884000 19.006000
n    3.795000 -5.352000 19.168000
c    5.131000 -5.059000 19.429000
h    5.838000 -5.854000 19.617000
c    5.465000 -3.769000 19.635000
h    6.478000 -3.436000 19.806000
c    4.454000 -2.810000 19.661000
n    4.672000 -1.539000 19.784000
h    3.877000 -0.933000 19.635000
h    5.595000 -1.230000 19.514000
n    3.195000 -3.108000 19.532000
c    2.810000 -4.333000 19.286000
o    1.614000 -4.520000 19.174000
c    4.238000 -8.819000 18.016000
h    4.996000 -9.351000 17.441000
c    3.978000 -7.386000 17.649000
h    4.889000 -6.852000 17.377000
h    3.259000 -7.369000 16.830000
o    2.948000 -9.524000 18.014000
p    2.412000 -10.299000 16.789000
o    1.446000 -11.348000 17.122000
o    3.518000 -10.590000 15.794000
o    1.592000 -9.227000 16.136000
c    0.405000 -8.681000 16.687000
h    0.578000 -8.327000 17.704000
h    -0.464000 -9.338000 16.700000
c    0.048000 -7.376000 15.987000
h    -1.026000 -7.263000 16.124000
o    0.692000 -6.168000 16.459000
c    0.939000 -5.302000 15.367000
h    0.013000 -4.877000 14.978000
n    1.928000 -4.277000 15.669000
c    3.326000 -4.354000 15.628000
h    3.911000 -5.259000 15.559000
n    3.945000 -3.245000 15.725000
c    2.902000 -2.340000 15.916000
c    2.931000 -0.909000 16.051000
o    3.876000 -0.141000 15.908000
n    1.684000 -0.357000 16.162000
h    1.527000 0.627000 16.329000
c    0.529000 -1.045000 16.217000
n    -0.514000 -0.400000 16.436000
h    -0.486000 0.602000 16.555000
h    -1.379000 -0.914000 16.519000
n    0.479000 -2.347000 16.076000
c    1.674000 -2.935000 15.903000
c    0.379000 -7.385000 14.494000
h    0.676000 -8.330000 14.041000
c    1.467000 -6.306000 14.334000
h    2.467000 -6.691000 14.535000
h    1.411000 -5.731000 13.409000
o    -0.712000 -6.973000 13.774000
p    -1.794000 -7.960000 13.144000
o    -2.261000 -8.898000 14.157000
o    -1.126000 -8.492000 11.943000
o    -2.961000 -6.995000 12.763000
c    -3.921000 -6.536000 13.732000
h    -3.418000 -6.345000 14.680000
h    -4.726000 -7.271000 13.733000
c    -4.553000 -5.163000 13.424000
h    -5.351000 -5.236000 14.164000
o    -3.621000 -4.062000 13.667000
c    -3.603000 -3.197000 12.551000
h    -4.350000 -2.435000 12.777000
n    -2.175000 -2.742000 12.402000
c    -1.082000 -3.596000 12.250000
h    -1.332000 -4.646000 12.210000
c    0.196000 -3.160000 12.284000
h    1.047000 -3.789000 12.069000
c    0.301000 -1.760000 12.444000
n    1.439000 -1.226000 12.271000
h    1.589000 -0.239000 12.417000
h    2.173000 -1.907000 12.132000
n    -0.706000 -0.973000 12.589000
c    -1.989000 -1.386000 12.584000
o    -2.875000 -0.598000 12.675000
c    -5.170000 -4.919000 12.074000
h    -5.330000 -5.902000 11.630000
c    -4.081000 -4.089000 11.365000
h    -3.273000 -4.750000 11.052000
h    -4.490000 -3.548000 10.511000
o    -6.446000 -4.232000 12.245000
p    -7.305000 -3.665000 11.044000
o    -8.652000 -3.383000 11.637000
o    -7.072000 -4.677000 9.923000
o    -6.664000 -2.308000 10.611000
c    -6.991000 -0.984000 11.120000
h    -6.627000 -0.876000 12.141000
h    -8.067000 -0.821000 11.062000
c    -6.350000 0.090000 10.218000
h    -6.775000 1.058000 10.484000
o    -4.945000 0.004000 10.110000
c    -4.476000 -0.061000 8.795000
h    -4.402000 0.922000 8.330000
n    -3.185000 -0.813000 8.625000
c    -2.878000 -2.097000 8.319000
h    -3.667000 -2.808000 8.122000
n    -1.608000 -2.418000 8.510000
c    -0.970000 -1.203000 8.725000
c    0.423000 -0.787000 8.792000
o    1.489000 -1.381000 8.619000
n    0.492000 0.510000 9.309000
h    1.449000 0.825000 9.377000
c    -0.502000 1.396000 9.254000
n    -0.320000 2.672000 9.416000
h    0.653000 2.925000 9.508000
h    -1.159000 3.234000 9.432000
n    -1.754000 1.132000 9.199000
c    -1.993000 -0.202000 8.910000
c    -6.844000 -0.077000 8.765000
h    -7.785000 -0.627000 8.754000
c    -5.659000 -0.759000 8.072000
h    -5.831000 -1.812000 8.295000
h    -5.629000 -0.607000 6.993000
o    -6.875000 1.151000 8.048000
p    -8.181000 1.723000 7.405000
o    -9.121000 2.081000 8.485000
o    -8.565000 0.731000 6.384000
o    -7.769000 3.089000 6.686000
c    -7.135000 4.085000 7.515000
h    -6.861000 3.702000 8.498000
h    -7.940000 4.798000 7.688000
c    -5.847000 4.864000 6.876000
h    -5.640000 5.721000 7.516000
o    -4.664000 4.059000 6.883000
c    -4.266000 3.920000 5.547000
h    -3.621000 4.757000 5.278000
n    -3.516000 2.660000 5.274000
c    -3.961000 1.411000 4.949000
h    -5.018000 1.208000 4.849000
n    -3.086000 0.465000 5.029000
c    -1.870000 1.157000 5.292000
c    -0.484000 0.875000 5.502000
n    0.083000 -0.309000 5.546000
h    1.051000 -0.248000 5.823000
h    -0.457000 -1.135000 5.332000
n    0.380000 1.788000 5.941000
c    -0.108000 3.041000 5.942000
h    0.649000 3.743000 6.261000
n    -1.353000 3.519000 5.784000
c    -2.176000 2.477000 5.517000
c    -6.148000 5.228000 5.376000
h    -7.221000 5.341000 5.224000
c    -5.526000 3.990000 4.773000
h    -6.211000 3.152000 4.907000
h    -5.288000 4.107000 3.716000
o    -5.489000 6.429000 5.025000
p    -5.974858 7.234208 3.714818
o    -6.910751 8.282056 4.166194
o    -6.427800 6.267374 2.685258
o    -4.654110 7.931897 3.176734
c    -4.055552 8.998356 3.891895
h    -4.030353 8.743426 4.946558
h    -4.651035 9.903181 3.768259
c    -2.607889 9.283885 3.491140
h    -2.244209 10.080963 4.136537
o    -1.820871 8.117482 3.702120
c    -1.336875 7.623498 2.463681
h    -0.276581 7.873583 2.359370
n    -1.526659 6.149799 2.436330
c    -2.706178 5.446034 2.357556
h    -3.670667 5.934720 2.326057
n    -2.566616 4.146817 2.294756
c    -1.175130 3.983508 2.384510
c    -0.303884 2.868164 2.372535
n    -0.691113 1.611964 2.248485
h    0.013463 0.883693 2.212636
h    -1.671311 1.397464 2.193374
n    1.015304 3.019138 2.462178
c    1.495164 4.251882 2.583126
h    2.571587 4.338764 2.660483
n    0.809752 5.393042 2.605318
c    -0.535576 5.191197 2.496911
c    -2.407593 9.714484 2.040596
h    -3.312022 10.170480 1.632428
c    -2.118094 8.370961 1.379826
h    -3.056344 7.870104 1.145806
h    -1.530262 8.496134 0.477518
o    -1.325683 10.638685 2.013120
p    -0.809249 11.320157 0.669951
o    -0.178644 12.600520 1.043759
o    -1.925915 11.344660 -0.292734
o    0.329396 10.339473 0.124786
c    1.550012 10.236251 0.851819
h    1.326210 10.024053 1.899667
h    2.066565 11.195123 0.808633
c    2.514079 9.153239 0.360110
h    3.399052 9.177557 0.999915
o    1.893523 7.878562 0.467501
c    2.147653 7.168829 -0.726754
h    3.147660 6.726414 -0.677654
n    1.114506 6.118583 -0.898714
c    -0.216935 6.449703 -1.052904
h    -0.491094 7.494164 -1.099743
c    -1.175173 5.488497 -1.126147
c    -2.624611 5.901053 -1.315743
h    -3.207697 5.581834 -0.453499
h    -2.715540 6.981620 -1.431682
h    -3.025963 5.410057 -2.201952
c    -0.808966 4.074057 -1.056822
o    -1.570450 3.110254 -1.123618
n    0.533620 3.837386 -0.908636
h    0.836272 2.874624 -0.929553
c    1.523947 4.783365 -0.841488
o    2.694696 4.420785 -0.762277
c    2.967143 9.316484 -1.098946
h    2.740613 10.317579 -1.470799
c    2.144468 8.246335 -1.807879
h    1.143954 8.625344 -2.002312
h    2.612117 7.899602 -2.728403
o    4.359372 9.049754 -1.177300
p    5.204603 9.265672 -2.514579
o    6.566330 9.668774 -2.119174
o    4.430997 10.133027 -3.430440
o    5.238153 7.781403 -3.129947
c    5.878085 6.723291 -2.425087
h    5.393513 6.602220 -1.457231
h    6.923512 6.989307 -2.258316
c    5.836961 5.362805 -3.133551
h    6.446517 4.671089 -2.549433
o    4.520818 4.835748 -3.193828
c    4.437622 4.045023 -4.363843
h    4.981537 3.104246 -4.224747
n    3.013764 3.774102 -4.696009
c    2.054778 4.757369 -4.556606
h    2.375297 5.764333 -4.317161
c    0.732948 4.461258 -4.682595
c    -0.298538 5.559632 -4.520611
h    -0.809906 5.698236 -5.470049
h    -1.041367 5.255725 -3.787609
h    0.163951 6.498281 -4.212937
c    0.294749 3.093738 -4.958838
o    -0.875083 2.703487 -5.020583
n    1.317690 2.200732 -5.170344
h    1.081415 1.240942 -5.379499
c    2.660005 2.473923 -5.072923
o    3.469466 1.583157 -5.298156
c    6.375839 5.381675 -4.571208
h    6.635714 6.405567 -4.849673
c    5.175445 4.895817 -5.387263
h    4.562667 5.745876 -5.689223
h    5.480901 4.303528 -6.248479
o    7.498594 4.507933 -4.689095
p    8.502736 4.597862 -5.930786
o    9.847766 4.241234 -5.434325
o    8.341352 5.935090 -6.533922
o    8.016388 3.497757 -6.987380
c    8.246136 2.110110 -6.743481
h    7.962976 1.876846 -5.715601
h    9.312137 1.901591 -6.849313
c    7.463976 1.152284 -7.660625
h    7.791337 0.136521 -7.434933
o    6.065789 1.256178 -7.396515
c    5.386536 1.289033 -8.638066
h    5.317427 0.270137 -9.035949
n    4.010937 1.856141 -8.516374
c    3.779467 3.209615 -8.434728
h    4.616745 3.893013 -8.383392
c    2.508146 3.686004 -8.430959
h    2.325959 4.747042 -8.385908
c    1.460970 2.730996 -8.516506
n    0.217527 3.109580 -8.542307
h    -0.475386 2.378187 -8.594771
h    -0.013208 4.091044 -8.570979
n    1.646413 1.431298 -8.527282
c    2.922977 0.970135 -8.522815
o    3.074889 -0.251533 -8.534207
c    7.655400 1.384993 -9.169619
h    8.511855 2.025116 -9.374105
c    6.347012 2.070077 -9.535941
h    6.403449 3.124050 -9.268329
h    6.100435 1.943867 -10.587913
o    7.736067 0.155845 -9.876666
p    8.890726 -0.128396 -10.936975
o    10.186731 -0.177021 -10.224055
o    8.693916 0.796370 -12.079428
o    8.503209 -1.588369 -11.444690
c    8.712697 -2.741161 -10.642425
h    8.542362 -2.492853 -9.592795
h    9.747449 -3.068351 -10.751387
c    7.765218 -3.896112 -11.013848
h    8.086315 -4.775964 -10.454855
o    6.429424 -3.558112 -10.637908
c    5.608881 -3.498011 -11.776769
h    5.046015 -4.448461 -11.863514
n    4.680982 -2.336799 -11.685466
c    5.026758 -0.992757 -11.657907
h    6.058213 -0.675599 -11.573494
n    3.981991 -0.205011 -11.714765
c    2.889012 -1.057095 -11.790613
c    1.491497 -0.822335 -11.851069
o    0.988828 0.367232 -11.819883
n    0.684327 -1.914726 -11.942556
h    -0.943492 -1.728453 -11.801730
c    1.222007 -3.166180 -11.923666
n    0.361803 -4.209300 -12.010874
h    -0.641746 -4.066389 -12.040999
h    0.731185 -5.149832 -12.031070
n    2.527726 -3.472879 -11.825507
c    3.310791 -2.384780 -11.776567
c    7.729015 -4.239871 -12.512516
h    8.653281 -3.932982 -13.003209
c    6.551699 -3.390299 -12.972378
h    6.866232 -2.362229 -13.145392
h    6.104353 -3.785601 -13.876932
o    7.493369 -5.633127 -12.708687
p    7.518409 -6.321336 -14.165180
o    8.262727 -7.595993 -14.032799
o    7.987321 -5.332590 -15.156183
o    5.969375 -6.624212 -14.471467
c    5.239503 -7.597727 -13.728323
h    5.294277 -7.344101 -12.668967
h    5.713443 -8.570118 -13.864524
c    3.746831 -7.748836 -14.092653
h    3.332548 -8.490800 -13.408864
o    3.040930 -6.521269 -13.921312
c    2.462309 -6.121577 -15.159738
h    1.420511 -6.452627 -15.203610
n    2.532577 -4.643231 -15.283828
c    3.745695 -4.008180 -15.269356
h    4.648557 -4.607669 -15.244106
c    3.804368 -2.655185 -15.249139
h    4.759055 -2.159774 -15.211419
c    2.573848 -1.949136 -15.260063
n    2.578325 -0.649850 -15.194286
h    1.673841 -0.199957 -15.096220
h    3.428809 -0.183926 -14.928651
n    1.394447 -2.534457 -15.318322
c    1.350670 -3.891229 -15.318470
o    0.239333 -4.427068 -15.347017
c    3.442057 -8.209225 -15.525516
h    4.276571 -8.775223 -15.945504
c    3.240472 -6.878336 -16.236877
h    4.206182 -6.421091 -16.450012
h    2.662304 -6.988743 -17.152188
o    2.243256 -8.983035 -15.505863
p    1.699889 -9.770048 -16.793298
o    0.947410 -10.936523 -16.285506
o    2.830435 -9.993939 -17.722782
o    0.659384 -8.766562 -17.468444
c    -0.676749 -8.694492 -16.984027
h    -0.668741 -8.458215 -15.923520
h    -1.147851 -9.669578 -17.106479
c    -1.552165 -7.660052 -17.693704
h    -2.543187 -7.691197 -17.242306
o    -1.012246 -6.356722 -17.526605
c    -1.002337 -5.727203 -18.790986
h    -1.991576 -5.306359 -18.989851
n    0.008723 -4.650716 -18.803005
c    1.379630 -4.749106 -18.810231
h    1.890026 -5.701341 -18.874629
n    2.003300 -3.604466 -18.705598
c    0.953965 -2.675247 -18.635771
c    0.958662 -1.244168 -18.502271
o    1.916766 -0.471115 -18.445758
n    -0.302547 -0.690524 -18.442647
h    -0.367156 0.303885 -18.289232
c    -1.444180 -1.405565 -18.554330
n    -2.568557 -0.740115 -18.510527
h    -2.576354 0.246617 -18.250668
h    -3.417056 -1.281412 -18.520836
n    -1.509446 -2.720713 -18.731743
c    -0.268241 -3.306369 -18.730416
c    -1.676112 -7.918852 -19.204419
h    -1.342395 -8.928103 -19.459500
c    -0.733076 -6.865592 -19.771178
h    0.298509 -7.212499 -19.699800
h    -0.986695 -6.591048 -20.794619
o    -3.001173 -7.687992 -19.669845
h    -3.065617 -8.064386 -20.574779
na   -0.257922 -12.829194 -16.678953
na   -0.141266 -7.113838 -0.655226
na   -1.983729 -10.908545 -7.888865
na   -4.558240 4.077954 -8.113818
na   -2.060000 8.398000 -29.009000
na   -6.006750 3.629726 -0.413723
na   -13.620000 1.330000 3.871000
na   4.863000 10.176000 4.505000
na   -12.241000 -3.349000 -21.010000
o    -7.269033 -2.706284 2.877447
h    -7.199186 -2.058901 3.615883
h    -6.432051 -3.209986 3.029268
o    -11.828000 -2.757000 31.528000
h    -11.158000 -3.395000 31.774000
h    -12.627000 -3.075000 31.948000
o    25.165000 -1.977000 2.727000
h    24.212000 -1.965000 2.644000
h    25.432000 -2.797000 2.313000
o    -3.340000 13.614000 -0.092000
h    -3.972000 13.555000 0.625000
h    -2.876000 12.777000 -0.071000
o    10.282000 -21.868000 21.902000
h    9.969000 -21.908000 20.998000
h    9.800000 -22.561000 22.354000
o    -13.794341 -7.670161 -13.519946
h    -14.007351 -6.728367 -13.310889
h    -13.313139 -7.900797 -12.686222
o    -10.463000 21.655000 1.901000
h    -10.389000 22.590000 1.715000
h    -10.106000 21.227000 1.123000
o    -5.519000 -22.452000 -20.764000
h    -4.619000 -22.452000 -20.438000
h    -5.665000 -23.349000 -21.066000
o    -16.138000 -12.813000 14.019000
h    -16.875000 -12.303000 14.354000
h    -16.534000 -13.627000 13.708000
o    -13.234000 14.565000 -10.270000
h    -12.621000 13.854000 -10.456000
h    -13.778000 14.231000 -9.557000
o    -22.192000 -13.988000 -9.740000
h    -22.682000 -13.509000 -9.072000
h    -21.359000 -14.200000 -9.318000
o    -18.736000 -0.001000 10.531000
h    -18.071000 -0.608000 10.855000
h    -18.398000 0.297000 9.686000
o    19.052000 4.357000 21.142000
h    19.729000 4.957000 21.455000
h    19.344000 3.494000 21.436000
o    -3.194000 12.946000 -4.741000
h    -2.772000 13.755000 -5.033000
h    -3.205000 13.012000 -3.786000
o    -18.658000 -7.888000 9.080000
h    -18.226000 -7.042000 8.968000
h    -19.449000 -7.689000 9.580000
o    15.921000 2.219000 6.359000
h    15.627000 3.120000 6.227000
h    15.408000 1.704000 5.735000
o    14.762000 -0.334000 17.713000
h    15.202000 0.361000 17.224000
h    13.924000 0.049000 17.971000
o    5.326000 -7.891000 6.369000
h    6.095000 -8.102000 5.840000
h    5.004000 -7.066000 6.007000
o    -16.356000 11.728000 10.910000
h    -16.616000 12.632000 11.090000
h    -16.051000 11.743000 10.003000
o    -9.563000 -17.479000 -6.404000
h    -10.376000 -17.888000 -6.699000
h    -9.259000 -16.979000 -7.161000
o    11.931000 -14.422000 -12.015000
h    12.740000 -14.104000 -12.416000
h    11.637000 -13.698000 -11.463000
o    -19.262000 6.179000 4.594000
h    -20.007000 6.587000 4.153000
h    -18.539000 6.793000 4.461000
o    -3.653000 -16.172000 -24.816000
h    -3.685000 -16.185000 -23.860000
h    -3.676000 -17.095000 -25.068000
o    19.201000 -1.503000 16.122000
h    19.847000 -2.103000 16.495000
h    19.712000 -0.740000 15.850000
o    -4.854000 -2.742000 33.419000
h    -5.104000 -2.801000 32.497000
h    -5.477000 -3.308000 33.873000
o    1.748000 16.663000 -14.772000
h    2.128000 16.051000 -14.141000
h    0.936000 16.959000 -14.358000
o    -22.969000 -3.509000 16.778000
h    -23.379000 -4.239000 17.241000
h    -22.520000 -3.916000 16.037000
o    10.954000 -21.343000 -1.775000
h    11.397000 -21.622000 -0.973000
h    10.867000 -22.144000 -2.293000
o    5.053976 -13.497633 -0.631933
h    5.240789 -13.925605 -1.490458
h    4.716961 -12.627768 -0.933698
o    8.802000 8.933000 17.424000
h    8.485000 9.171000 18.295000
h    8.242000 8.203000 17.158000
o    -17.768000 4.069000 -14.395000
h    -18.699000 4.091000 -14.620000
h    -17.375000 3.505000 -15.059000
o    -3.905000 -19.292000 0.414000
h    -3.390000 -19.180000 1.213000
h    -4.593000 -18.630000 0.477000
o    7.382000 24.733000 -4.401000
h    7.273000 24.871000 -5.342000
h    6.558000 24.336000 -4.120000
o    18.576000 12.620000 -8.817000
h    18.680000 11.705000 -9.082000
h    19.086000 12.694000 -8.011000
o    -15.801000 -2.857000 22.275000
h    -16.731000 -3.075000 22.200000
h    -15.791000 -1.968000 22.628000
o    -13.063000 4.566000 29.398000
h    -12.278000 5.058000 29.159000
h    -13.098000 4.621000 30.353000
o    6.580000 18.582000 -3.310000
h    7.495000 18.592000 -3.028000